% Model:              nc_magnet_1.mph
% Version:            COMSOL 6.2.0.415
% Date:               Feb 3 2025, 10:42
% Dimension:          2
% Nodes:              3000
% Expressions:        2
% Description:        Point
% cpl8x                   cpl8y                    Magnetic flux density, x-component Radius
-0.475                    0.05                     2.75930254403034E-4      1
-0.425                    0.05                     2.9056344052499905E-4    1
-0.375                    0.05                     3.051966266471723E-4     1
-0.32499999999999996      0.05                     3.245325208047767E-4     1
-0.275                    0.05                     3.245325208047767E-4     1
-0.22499999999999998      0.05                     3.684609830693075E-4     1
-0.17500000000000004      0.05                     3.84355215922505E-4      1
-0.12500000000000006      0.05                     3.438187890294764E-4     1
-0.07500000000000001      0.05                     3.518132673550056E-4     1
-0.025000000000000022     0.05                     3.386971474452771E-4     1
0.024999999999999967      0.05                     0.1525538337968259       1
0.07500000000000007       0.05                     0.13556986791213665      1
0.125                     0.05                     0.14911597141534783      1
0.17500000000000004       0.05                     0.1281428847118109       1
0.22499999999999998       0.05                     0.16668623208910371      1
0.275                     0.05                     0.11826250876893463      1
0.32500000000000007       0.05                     0.06720311709996274      1
0.375                     0.05                     0.06720311709996274      1
0.42500000000000004       0.05                     0.10209699700949315      1
0.4750000000000001        0.05                     0.09883400837169853      1
0.5249999999999999        0.05                     0.0806973084330691       1
0.575                     0.05                     0.06415072577813663      1
0.625                     0.05                     0.06415072577813596      1
0.6749999999999998        0.05                     0.06415072577813663      1
0.7250000000000001        0.05                     0.04157064026572277      1
0.7749999999999999        0.05                     0.10492676848025262      1
0.8250000000000002        0.05                     0.051996734630852526     1
0.875                     0.05                     0.05673446703759821      1
0.9249999999999999        0.05                     0.05673446703759799      1
0.9749999999999999        0.05                     0.056734467037598435     1
1.025                     0.05                     0.023362580230527286     1
1.075                     0.05                     -0.033829072478113176    1
1.125                     0.05                     0.02407170913669887      1
1.175                     0.05                     0.04948478807710366      1
1.2249999999999996        0.05                     0.04948478807710366      1
1.275                     0.05                     0.04948478807710366      1
1.3250000000000002        0.05                     0.04948478807710366      1
1.375                     0.05                     0.03681705956203807      1
1.4249999999999998        0.05                     0.03264186963037685      1
1.475                     0.05                     0.02415836849671714      1
1.5250000000000004        0.05                     0.00915941711793744      1
1.575                     0.05                     0.009159417117937885     1
1.625                     0.05                     0.009159417117937607     1
1.675                     0.05                     0.009159417117937885     1
1.725                     0.05                     0.00915941711793855      1
1.775                     0.05                     -0.010809395479552841    1
1.8250000000000002        0.05                     0.022299903533778642     1
1.8749999999999998        0.05                     0.015439691626510932     1
1.925                     0.05                     0.013638242624254726     1
1.975                     0.05                     0.0017121733923566307    1
2.025                     0.05                     0.0017121733923566307    1
2.0749999999999997        0.05                     0.0017121733923564086    1
2.1250000000000004        0.05                     0.0017121733923564086    1
2.1750000000000003        0.05                     1.4203708512627866E-4    1
2.225                     0.05                     5.741576258517789E-4     1
2.275                     0.05                     0.01096575498312058      1
2.3249999999999993        0.05                     0.0018857963157050683    1
2.375                     0.05                     0.0018857963157050683    1
2.425                     0.05                     0.0018857963157050683    1
2.4749999999999996        0.05                     0.0018857963157050683    1
2.5250000000000004        0.05                     0.0018857963157050683    1
2.575                     0.05                     0.0018857963157050683    1
2.625                     0.05                     -0.0011128218375466847   1
2.675                     0.05                     9.095098075122543E-4     1
2.7249999999999996        0.05                     0.006362119625450413     1
2.7750000000000004        0.05                     0.0015811446075131297    1
2.825                     0.05                     0.0015811446075131297    1
2.875                     0.05                     0.0015811446075131297    1
2.9250000000000007        0.05                     0.0015811446075131297    1
2.975                     0.05                     0.0015811446075131297    1
3.025                     0.05                     0.0015811446075131297    1
3.0749999999999997        0.05                     0.0011708614990284527    1
3.1249999999999996        0.05                     0.0011708614990284527    1
3.1750000000000003        0.05                     0.0032960266134783867    1
3.225                     0.05                     0.007389290176265273     1
3.275                     0.05                     0.007389290176265273     1
3.3249999999999997        0.05                     0.007389290176265273     1
3.3750000000000004        0.05                     0.0031510333933386647    1
3.4250000000000003        0.05                     0.0018610223154365002    1
3.475                     0.05                     0.0014885438879798096    1
3.525                     0.05                     0.0016527307474473174    1
3.5749999999999993        0.05                     0.0038116180498314334    1
3.625                     0.05                     -0.001530989898772317    1
3.675                     0.05                     0.007936443031835605     1
3.7249999999999996        0.05                     0.00420433455353731      1
3.7750000000000004        0.05                     0.0038102985960796615    1
3.825                     0.05                     0.003403070468150027     1
3.875                     0.05                     0.0029258015390870584    1
3.925                     0.05                     0.0030539915551783814    1
3.9749999999999996        0.05                     0.0031967846979075176    1
4.0249999999999995        0.05                     1.8123789927269873E-4    1
4.074999999999999         0.05                     -2.7782540113485688E-5   1
4.125000000000001         0.05                     3.3585491331922235E-5    1
4.175000000000001         0.05                     1.2424068537697508E-4    1
4.225                     0.05                     8.468566191144333E-5     1
4.2749999999999995        0.05                     6.128280647565987E-5     1
4.325                     0.05                     6.128280647565987E-5     1
4.375                     0.05                     6.128280647565987E-5     1
4.425                     0.05                     4.4836494160600815E-5    1
4.475                     0.05                     1.0543254337523622E-4    1
-0.475                    0.15000000000000002      8.27341722091552E-4      1
-0.425                    0.15000000000000002      8.673634246628898E-4     1
-0.375                    0.15000000000000002      9.073851272343638E-4     1
-0.32499999999999996      0.15000000000000002      0.0010274666542190308    1
-0.275                    0.15000000000000002      0.001160779452176186     1
-0.22499999999999998      0.15000000000000002      0.0011138515217266887    1
-0.17500000000000004      0.15000000000000002      0.001212069805986482     1
-0.12500000000000006      0.15000000000000002      0.0012525250503019336    1
-0.07500000000000001      0.15000000000000002      0.0013214729617779392    1
-0.025000000000000022     0.15000000000000002      0.001324780257910274     1
0.024999999999999967      0.15000000000000002      0.5634758441602382       1
0.07500000000000007       0.15000000000000002      0.5084256225170003       1
0.125                     0.15000000000000002      0.4541327004547152       1
0.17500000000000004       0.15000000000000002      0.47246097304676304      1
0.22499999999999998       0.15000000000000002      0.3825485977991141       1
0.275                     0.15000000000000002      0.3670923108240234       1
0.32500000000000007       0.15000000000000002      0.3324832575429859       1
0.375                     0.15000000000000002      0.3000014517325471       1
0.42500000000000004       0.15000000000000002      0.266693568835828        1
0.4750000000000001        0.15000000000000002      0.2900213223521271       1
0.5249999999999999        0.15000000000000002      0.20915685579034649      1
0.575                     0.15000000000000002      0.20215276434759372      1
0.625                     0.15000000000000002      0.1951486729048364       1
0.6749999999999998        0.15000000000000002      0.24347959956491566      1
0.7250000000000001        0.15000000000000002      0.20821544535656367      1
0.7749999999999999        0.15000000000000002      0.18968886255334594      1
0.8250000000000002        0.15000000000000002      0.16608810062748103      1
0.875                     0.15000000000000002      0.2298966604471483       1
0.9249999999999999        0.15000000000000002      0.17696662659774798      1
0.9749999999999999        0.15000000000000002      0.1652297306780368       1
1.025                     0.15000000000000002      0.1503367300568348       1
1.075                     0.15000000000000002      0.13801406294989083      1
1.125                     0.15000000000000002      0.09197852231760151      1
1.175                     0.15000000000000002      0.06865638711752298      1
1.2249999999999996        0.15000000000000002      0.1379058039027985       1
1.275                     0.15000000000000002      0.14845436423131142      1
1.3250000000000002        0.15000000000000002      0.14845436423131142      1
1.375                     0.15000000000000002      0.061064469854934855     1
1.4249999999999998        0.15000000000000002      0.057786868664246205     1
1.475                     0.15000000000000002      0.05248075192087251      1
1.5250000000000004        0.15000000000000002      0.049510520651576684     1
1.575                     0.15000000000000002      0.046540289382279276     1
1.625                     0.15000000000000002      0.03978788430351793      1
1.675                     0.15000000000000002      0.027478251353813432     1
1.725                     0.15000000000000002      0.0045201031462964725    1
1.775                     0.15000000000000002      0.04768721562228315      1
1.8250000000000002        0.15000000000000002      0.043839648271045695     1
1.8749999999999998        0.15000000000000002      0.0328800116828194       1
1.925                     0.15000000000000002      0.03358595203301751      1
1.975                     0.15000000000000002      0.031784503030760636     1
2.025                     0.15000000000000002      0.029983054028505762     1
2.0749999999999997        0.15000000000000002      0.028181605026245116     1
2.1250000000000004        0.15000000000000002      0.023351549727822052     1
2.1750000000000003        0.15000000000000002      0.017010371689873516     1
2.225                     0.15000000000000002      0.021961374848067483     1
2.275                     0.15000000000000002      0.023699674953531383     1
2.3249999999999993        0.15000000000000002      0.022008812746972695     1
2.375                     0.15000000000000002      0.01793088141121113      1
2.425                     0.15000000000000002      0.015404068526683856     1
2.4749999999999996        0.15000000000000002      0.012877255642161689     1
2.5250000000000004        0.15000000000000002      0.010350442757634859     1
2.575                     0.15000000000000002      0.012978300810754573     1
2.625                     0.15000000000000002      0.0055311772599566655    1
2.675                     0.15000000000000002      0.005602757618410559     1
2.7249999999999996        0.15000000000000002      0.012322234476362492     1
2.7750000000000004        0.15000000000000002      0.011307308011229256     1
2.825                     0.15000000000000002      0.009994839399668276     1
2.875                     0.15000000000000002      0.004743433822540055     1
2.9250000000000007        0.15000000000000002      0.004743433822540055     1
2.975                     0.15000000000000002      0.004743433822540055     1
3.025                     0.15000000000000002      0.004743433822540055     1
3.0749999999999997        0.15000000000000002      0.0044885431254585995    1
3.1249999999999996        0.15000000000000002      0.007493828742924813     1
3.1750000000000003        0.15000000000000002      0.010499114360390749     1
3.225                     0.15000000000000002      0.013504399977855908     1
3.275                     0.15000000000000002      0.014812180737663407     1
3.3249999999999997        0.15000000000000002      0.011977803436871881     1
3.3750000000000004        0.15000000000000002      0.010687792358969384     1
3.4250000000000003        0.15000000000000002      0.009397781281067052     1
3.475                     0.15000000000000002      0.00873212892408286      1
3.525                     0.15000000000000002      0.007118360428046366     1
3.5749999999999993        0.15000000000000002      0.0047313374155454335    1
3.625                     0.15000000000000002      0.009175484827943503     1
3.675                     0.15000000000000002      0.009596018805868578     1
3.7249999999999996        0.15000000000000002      0.0060078857434460176    1
3.7750000000000004        0.15000000000000002      0.008701350028154309     1
3.825                     0.15000000000000002      0.00907186160860407      1
3.875                     0.15000000000000002      0.010186050449039419     1
3.925                     0.15000000000000002      0.009836373465320403     1
3.9749999999999996        0.15000000000000002      0.009944062234577        1
4.0249999999999995        0.15000000000000002      3.26079389179057E-5      1
4.074999999999999         0.15000000000000002      5.0271579134841815E-5    1
4.125000000000001         0.15000000000000002      6.109488772398919E-5     1
4.175000000000001         0.15000000000000002      1.5703649788878504E-4    1
4.225                     0.15000000000000002      1.3051972967703662E-4    1
4.2749999999999995        0.15000000000000002      1.5177300350988077E-4    1
4.325                     0.15000000000000002      1.6951047692459476E-4    1
4.375                     0.15000000000000002      2.4660355254346733E-4    1
4.425                     0.15000000000000002      2.202048865035111E-4     1
4.475                     0.15000000000000002      1.9199193625629718E-4    1
-0.475                    0.25                     0.0013712012459152455    1
-0.425                    0.25                     0.001398331272652967     1
-0.375                    0.25                     0.0015058799195593348    1
-0.32499999999999996      0.25                     0.001646558391565689     1
-0.275                    0.25                     0.0017850411176769665    1
-0.22499999999999998      0.25                     0.0019852237457942193    1
-0.17500000000000004      0.25                     0.00226229940653953      1
-0.12500000000000006      0.25                     0.0023971151902237864    1
-0.07500000000000001      0.25                     0.0026196820177301072    1
-0.025000000000000022     0.25                     0.0025924370459144974    1
0.024999999999999967      0.25                     1.3162405882352957       1
0.07500000000000007       0.25                     1.2191405087575395       1
0.125                     0.25                     1.2293078565079747       1
0.17500000000000004       0.25                     1.101632208561474        1
0.22499999999999998       0.25                     0.9868307492768129       1
0.275                     0.25                     0.8395427018315615       1
0.32500000000000007       0.25                     0.8371990911338942       1
0.375                     0.25                     0.7281139267456265       1
0.42500000000000004       0.25                     0.555514613388419        1
0.4750000000000001        0.25                     0.6260299811650754       1
0.5249999999999999        0.25                     0.6414419695312508       1
0.575                     0.25                     0.5278760733504253       1
0.625                     0.25                     0.5154204167706595       1
0.6749999999999998        0.25                     0.4798951060782002       1
0.7250000000000001        0.25                     0.3740126604264171       1
0.7749999999999999        0.25                     0.3678258817916582       1
0.8250000000000002        0.25                     0.3260629526031842       1
0.875                     0.25                     0.33912786684154916      1
0.9249999999999999        0.25                     0.277679845735034        1
0.9749999999999999        0.25                     0.26734532567414315      1
1.025                     0.25                     0.29764489877559974      1
1.075                     0.25                     0.25024667356888086      1
1.125                     0.25                     0.2366915047539065       1
1.175                     0.25                     0.21336936955382724      1
1.2249999999999996        0.25                     0.18675257549801438      1
1.275                     0.25                     0.0770946868783291       1
1.3250000000000002        0.25                     0.07438908987353443      1
1.375                     0.25                     0.1212016492779322       1
1.4249999999999998        0.25                     0.08293186769812078      1
1.475                     0.25                     0.07965426650743401      1
1.5250000000000004        0.25                     0.07154404431744021      1
1.575                     0.25                     0.08096858915331329      1
1.625                     0.25                     0.0770598790778414       1
1.675                     0.25                     0.067671253651137        1
1.725                     0.25                     0.07385899191440204      1
1.775                     0.25                     0.07176869369166114      1
1.8250000000000002        0.25                     0.06783381363761487      1
1.8749999999999998        0.25                     0.06398624628637606      1
1.925                     0.25                     0.0601386789351368       1
1.975                     0.25                     0.04344298741302888      1
2.025                     0.25                     0.04993076343727054      1
2.0749999999999997        0.25                     0.035249500665957445     1
2.1250000000000004        0.25                     0.028908322628002026     1
2.1750000000000003        0.25                     0.020926222091769753     1
2.225                     0.25                     0.02540950728104935      1
2.275                     0.25                     0.03005182160488193      1
2.3249999999999993        0.25                     0.03469413592871205      1
2.375                     0.25                     0.027449022894251884     1
2.425                     0.25                     0.03160564319390691      1
2.4749999999999996        0.25                     0.029078830309378967     1
2.5250000000000004        0.25                     0.024880362039007453     1
2.575                     0.25                     0.01926531584155189      1
2.625                     0.25                     0.013650269644102764     1
2.675                     0.25                     0.007661839888174704     1
2.7249999999999996        0.25                     0.013181847401241065     1
2.7750000000000004        0.25                     0.01952832322080278      1
2.825                     0.25                     0.015384195692897729     1
2.875                     0.25                     0.014071727081337942     1
2.9250000000000007        0.25                     0.015174613877373067     1
2.975                     0.25                     0.013951137554164827     1
3.025                     0.25                     0.0054736408062969755    1
3.0749999999999997        0.25                     0.0038910324218239876    1
3.1249999999999996        0.25                     0.014696916489836065     1
3.1750000000000003        0.25                     0.014108314100403118     1
3.225                     0.25                     0.01636229928305672      1
3.275                     0.25                     0.015914740777802583     1
3.3249999999999997        0.25                     0.01586185456630379      1
3.3750000000000004        0.25                     0.015903163389060726     1
3.4250000000000003        0.25                     0.018870472755607985     1
3.475                     0.25                     0.014452785548621224     1
3.525                     0.25                     0.010035098341635127     1
3.5749999999999993        0.25                     0.01382625906220647      1
3.625                     0.25                     0.01424679304012888      1
3.675                     0.25                     0.013403383972196065     1
3.7249999999999996        0.25                     0.013814233906846135     1
3.7750000000000004        0.25                     0.008839582150309333     1
3.825                     0.25                     0.014664271079912083     1
3.875                     0.25                     0.014769836767246858     1
3.925                     0.25                     0.015411034677557486     1
3.9749999999999996        0.25                     0.015598160021670027     1
4.0249999999999995        0.25                     5.5772596012554354E-5    1
4.074999999999999         0.25                     1.012943987086512E-4     1
4.125000000000001         0.25                     2.460275158915337E-4     1
4.175000000000001         0.25                     2.4435219337215486E-4    1
4.225                     0.25                     2.1041812151345596E-4    1
4.2749999999999995        0.25                     2.499202354941943E-4     1
4.325                     0.25                     3.2435380513759493E-4    1
4.375                     0.25                     3.344762434409898E-4     1
4.425                     0.25                     3.651202285046007E-4     1
4.475                     0.25                     3.957642135675732E-4     1
-0.475                    0.35                     0.0016648971368657672    1
-0.425                    0.35                     0.0018368062845772679    1
-0.375                    0.35                     0.002008715432289268     1
-0.32499999999999996      0.35                     0.002180624580000179     1
-0.275                    0.35                     0.002223939033164927     1
-0.22499999999999998      0.35                     0.0028343827623840134    1
-0.17500000000000004      0.35                     0.003283919856225559     1
-0.12500000000000006      0.35                     0.003800715881619454     1
-0.07500000000000001      0.35                     0.0043019951282545765    1
-0.025000000000000022     0.35                     0.004555011722880309     1
0.024999999999999967      0.35                     1.7675611471669352       1
0.07500000000000007       0.35                     1.7656527837543          1
0.125                     0.35                     1.7687264663747952       1
0.17500000000000004       0.35                     1.7715111213034724       1
0.22499999999999998       0.35                     1.7712795657119047       1
0.275                     0.35                     1.7666915278119797       1
0.32500000000000007       0.35                     1.8001632675354138       1
0.375                     0.35                     1.7827529405687974       1
0.42500000000000004       0.35                     1.5517090780233023       1
0.4750000000000001        0.35                     1.252745480758061        1
0.5249999999999999        0.35                     1.2603971859657364       1
0.575                     0.35                     1.207211537254402        1
0.625                     0.35                     0.9440823084373151       1
0.6749999999999998        0.35                     0.9180280848482028       1
0.7250000000000001        0.35                     0.9398295585621721       1
0.7749999999999999        0.35                     0.8316180353180944       1
0.8250000000000002        0.35                     0.6954383753064137       1
0.875                     0.35                     0.6225513450874196       1
0.9249999999999999        0.35                     0.5693426665038304       1
0.9749999999999999        0.35                     0.5432689618030155       1
1.025                     0.35                     0.3954938550406335       1
1.075                     0.35                     0.3926907301059792       1
1.125                     0.35                     0.3473994035132719       1
1.175                     0.35                     0.3142215522571886       1
1.2249999999999996        0.35                     0.2776958931677225       1
1.275                     0.35                     0.17728682746117919      1
1.3250000000000002        0.35                     0.2040464645162139       1
1.375                     0.35                     0.15785600859553894      1
1.4249999999999998        0.35                     0.13895362135077963      1
1.475                     0.35                     0.12751362380932996      1
1.5250000000000004        0.35                     0.11714098814142182      1
1.575                     0.35                     0.10166254966114341      1
1.625                     0.35                     0.09473594919270728      1
1.675                     0.35                     0.09288966896198914      1
1.725                     0.35                     0.07617860653701852      1
1.775                     0.35                     0.08660094781518735      1
1.8250000000000002        0.35                     0.08451064959243931      1
1.8749999999999998        0.35                     0.08242035136969739      1
1.925                     0.35                     0.07581662220613827      1
1.975                     0.35                     0.05131517362020166      1
2.025                     0.35                     0.04017324049038695      1
2.0749999999999997        0.35                     0.040806273566132645     1
2.1250000000000004        0.35                     0.04988617912372373      1
2.1750000000000003        0.35                     0.04305271658939758      1
2.225                     0.35                     0.03621925405506632      1
2.275                     0.35                     0.03349995403786288      1
2.3249999999999993        0.35                     0.03814226836169443      1
2.375                     0.35                     0.04112442901795088      1
2.425                     0.35                     0.02779417094314285      1
2.4749999999999996        0.35                     0.040570544954086074     1
2.5250000000000004        0.35                     0.0311673770698061       1
2.575                     0.35                     0.025552330872349316     1
2.625                     0.35                     0.019937284674899747     1
2.675                     0.35                     0.014322238477445737     1
2.7249999999999996        0.35                     0.014041460326114752     1
2.7750000000000004        0.35                     0.020387936145680463     1
2.825                     0.35                     0.02104706508327303      1
2.875                     0.35                     0.015216860012318978     1
2.9250000000000007        0.35                     0.01728211413562164      1
2.975                     0.35                     0.010896899267509141     1
3.025                     0.35                     0.012324338374113175     1
3.0749999999999997        0.35                     0.010239695655213765     1
3.1249999999999996        0.35                     0.013034924316356111     1
3.1750000000000003        0.35                     0.013686366505385905     1
3.225                     0.35                     0.016954776437043684     1
3.275                     0.35                     0.017359327042476336     1
3.3249999999999997        0.35                     0.01632703156375681      1
3.3750000000000004        0.35                     0.018086052384247875     1
3.4250000000000003        0.35                     0.016881541656739607     1
3.475                     0.35                     0.01652379176880192      1