% Model:              nc_magnet_1.mph
% Version:            COMSOL 6.2.0.415
% Date:               Feb 3 2025, 10:26
% Dimension:          2
% Nodes:              3000
% Expressions:        2
% Description:        Point
% cpl3x                   cpl3y                    Magnetic flux density, y-component Radius
-0.475                    0.05000000000000001      -0.004812991621490594    1
-0.425                    0.05000000000000001      -0.0049465532638031315   1
-0.375                    0.05000000000000001      -0.005109404330001122    1
-0.32499999999999996      0.05000000000000001      -0.005440632779671439    1
-0.275                    0.05000000000000001      -0.0058237820438653      1
-0.22499999999999998      0.05000000000000001      -0.0063384441201819325   1
-0.17500000000000004      0.05000000000000001      -0.007024804853378974    1
-0.12500000000000006      0.05000000000000001      -0.007797778031754632    1
-0.07500000000000001      0.05000000000000001      -0.008752600487388018    1
-0.025000000000000022     0.05000000000000001      -0.004115927403158803    1
0.024999999999999967      0.05000000000000001      1.782846343189818        1
0.07500000000000007       0.05000000000000001      1.7825293566690812       1
0.125                     0.05000000000000001      1.7824245171571267       1
0.17500000000000004       0.05000000000000001      1.7818066421007588       1
0.22499999999999998       0.05000000000000001      1.7810351957711381       1
0.275                     0.05000000000000001      1.780603835277991        1
0.32500000000000007       0.05000000000000001      1.7794693680113554       1
0.375                     0.05000000000000001      1.7787003306229687       1
0.42500000000000004       0.05000000000000001      1.777697721700532        1
0.4750000000000001        0.05000000000000001      1.7768479125880037       1
0.5249999999999999        0.05000000000000001      1.7756861955674679       1
0.575                     0.05000000000000001      1.7744984451100638       1
0.625                     0.05000000000000001      1.7732569574372627       1
0.6749999999999998        0.05000000000000001      1.7720653823995445       1
0.7250000000000001        0.05000000000000001      1.7703892092387858       1
0.7749999999999999        0.05000000000000001      1.7690122952611271       1
0.8250000000000002        0.05000000000000001      1.7674254653561654       1
0.875                     0.05000000000000001      1.7661466810814128       1
0.9249999999999999        0.05000000000000001      1.7647145318802475       1
0.9749999999999999        0.05000000000000001      1.7631905294288874       1
1.025                     0.05000000000000001      1.7616210500436302       1
1.075                     0.05000000000000001      1.7602385422888616       1
1.125                     0.05000000000000001      1.7587614044892432       1
1.175                     0.05000000000000001      1.757284266689624        1
1.2249999999999996        0.05000000000000001      1.7557084507355216       1
1.275                     0.05000000000000001      1.75412294831792         1
1.3250000000000002        0.05000000000000001      1.7524746113594671       1
1.375                     0.05000000000000001      1.7509634632840587       1
1.4249999999999998        0.05000000000000001      1.7495070862007562       1
1.475                     0.05000000000000001      1.748050709117456        1
1.5250000000000004        0.05000000000000001      1.7464466592412462       1
1.575                     0.05000000000000001      1.7448949364597048       1
1.625                     0.05000000000000001      1.7438435945473059       1
1.675                     0.05000000000000001      1.742653435371954        1
1.725                     0.05000000000000001      1.7405826222350977       1
1.775                     0.05000000000000001      1.7392648620721927       1
1.8250000000000002        0.05000000000000001      1.7379471019092863       1
1.8749999999999998        0.05000000000000001      1.7366293417463803       1
1.925                     0.05000000000000001      1.7352309158817785       1
1.975                     0.05000000000000001      1.7341842656220985       1
2.025                     0.05000000000000001      1.7333673663130575       1
2.0749999999999997        0.05000000000000001      1.73145384321783         1
2.1250000000000004        0.05000000000000001      1.7303336972555656       1
2.1750000000000003        0.05000000000000001      1.7292135512933036       1
2.225                     0.05000000000000001      1.7280934053310424       1
2.275                     0.05000000000000001      1.7269732593687785       1
2.3249999999999993        0.05000000000000001      1.7271621940170583       1
2.375                     0.05000000000000001      1.725484907445722        1
2.425                     0.05000000000000001      1.7238624107679779       1
2.4749999999999996        0.05000000000000001      1.7229850361139905       1
2.5250000000000004        0.05000000000000001      1.7221076614600046       1
2.575                     0.05000000000000001      1.721230286806017        1
2.625                     0.05000000000000001      1.7203529121520298       1
2.675                     0.05000000000000001      1.7194755374980426       1
2.7249999999999996        0.05000000000000001      1.7202433819495648       1
2.7750000000000004        0.05000000000000001      1.7187602311692207       1
2.825                     0.05000000000000001      1.71759459346418         1
2.875                     0.05000000000000001      1.7171783625623296       1
2.9250000000000007        0.05000000000000001      1.715811634814715        1
2.975                     0.05000000000000001      1.715234430552393        1
3.025                     0.05000000000000001      1.714657226290073        1
3.0749999999999997        0.05000000000000001      1.7140800220277517       1
3.1249999999999996        0.05000000000000001      1.713502817765431        1
3.1750000000000003        0.05000000000000001      1.7145131297144287       1
3.225                     0.05000000000000001      1.7136792410363875       1
3.275                     0.05000000000000001      1.7121428948765458       1
3.3249999999999997        0.05000000000000001      1.7118882725785372       1
3.3750000000000004        0.05000000000000001      1.7115810160259755       1
3.4250000000000003        0.05000000000000001      1.711224207789015        1
3.475                     0.05000000000000001      1.7109406646558014       1
3.525                     0.05000000000000001      1.7106814091426596       1
3.5749999999999993        0.05000000000000001      1.7104232865272746       1
3.625                     0.05000000000000001      1.7103853904143342       1
3.675                     0.05000000000000001      1.7102607648893402       1
3.7249999999999996        0.05000000000000001      1.7101904186169543       1
3.7750000000000004        0.05000000000000001      1.710009136667983        1
3.825                     0.05000000000000001      1.7102360944169455       1
3.875                     0.05000000000000001      1.70989723283834         1
3.925                     0.05000000000000001      1.7098213437530339       1
3.9749999999999996        0.05000000000000001      1.7098789631696913       1
4.0249999999999995        0.05000000000000001      -0.006311347363160635    1
4.074999999999999         0.05000000000000001      -0.011325716973218602    1
4.125000000000001         0.05000000000000001      -0.01069054083433496     1
4.175000000000001         0.05000000000000001      -0.01013938835172623     1
4.225                     0.05000000000000001      -0.009613932948162596    1
4.2749999999999995        0.05000000000000001      -0.009212126623549644    1
4.325                     0.05000000000000001      -0.00890983973099535     1
4.375                     0.05000000000000001      -0.008611786532962844    1
4.425                     0.05000000000000001      -0.008508364446995265    1
4.475                     0.05000000000000001      -0.008337644378220294    1
-0.475                    0.15000000000000002      -0.004688828291967151    1
-0.425                    0.15000000000000002      -0.0048046039569096255   1
-0.375                    0.15000000000000002      -0.004991578447494649    1
-0.32499999999999996      0.15000000000000002      -0.005259371383946387    1
-0.275                    0.15000000000000002      -0.005712155408582831    1
-0.22499999999999998      0.15000000000000002      -0.006171620163048619    1
-0.17500000000000004      0.15000000000000002      -0.006813949455759527    1
-0.12500000000000006      0.15000000000000002      -0.007617679480219186    1
-0.07500000000000001      0.15000000000000002      -0.008581842767050318    1
-0.025000000000000022     0.15000000000000002      -0.004060425757415942    1
0.024999999999999967      0.15000000000000002      1.7828580538712147       1
0.07500000000000007       0.15000000000000002      1.7827579282342714       1
0.125                     0.15000000000000002      1.7823808555130607       1
0.17500000000000004       0.15000000000000002      1.7818036328575007       1
0.22499999999999998       0.15000000000000002      1.7812264102019482       1
0.275                     0.15000000000000002      1.7804095221289458       1
0.32500000000000007       0.15000000000000002      1.7794863636161633       1
0.375                     0.15000000000000002      1.7790023611874908       1
0.42500000000000004       0.15000000000000002      1.777128760388429        1
0.4750000000000001        0.15000000000000002      1.7761715828053024       1
0.5249999999999999        0.15000000000000002      1.7755760900988378       1
0.575                     0.15000000000000002      1.7742959660453663       1
0.625                     0.15000000000000002      1.772658381173601        1
0.6749999999999998        0.15000000000000002      1.7718315289493975       1
0.7250000000000001        0.15000000000000002      1.7704934557026544       1
0.7749999999999999        0.15000000000000002      1.769088264059274        1
0.8250000000000002        0.15000000000000002      1.7675304145715316       1
0.875                     0.15000000000000002      1.766253405216256        1
0.9249999999999999        0.15000000000000002      1.7646785710860424       1
0.9749999999999999        0.15000000000000002      1.7631037369558258       1
1.025                     0.15000000000000002      1.761528902825603        1
1.075                     0.15000000000000002      1.7600607105010777       1
1.125                     0.15000000000000002      1.7585630978898679       1
1.175                     0.15000000000000002      1.7570654852786542       1
1.2249999999999996        0.15000000000000002      1.7555678726674446       1
1.275                     0.15000000000000002      1.754070260056234        1
1.3250000000000002        0.15000000000000002      1.7525098511630368       1
1.375                     0.15000000000000002      1.750960656189962        1
1.4249999999999998        0.15000000000000002      1.7494762049480785       1
1.475                     0.15000000000000002      1.7479847066869096       1
1.5250000000000004        0.15000000000000002      1.746393523617007        1
1.575                     0.15000000000000002      1.7449635754657264       1
1.625                     0.15000000000000002      1.7435046621565702       1
1.675                     0.15000000000000002      1.7422226187382028       1
1.725                     0.15000000000000002      1.7407346643657213       1
1.775                     0.15000000000000002      1.739419595504737        1
1.8250000000000002        0.15000000000000002      1.7379918115135597       1
1.8749999999999998        0.15000000000000002      1.7366613480482882       1
1.925                     0.15000000000000002      1.735291216008172        1
1.975                     0.15000000000000002      1.734196832063743        1
2.025                     0.15000000000000002      1.7327669361840516       1
2.0749999999999997        0.15000000000000002      1.7314776717021858       1
2.1250000000000004        0.15000000000000002      1.730429676720128        1
2.1750000000000003        0.15000000000000002      1.7293230340760424       1
2.225                     0.15000000000000002      1.728216391431955        1
2.275                     0.15000000000000002      1.7270532248732922       1
2.3249999999999993        0.15000000000000002      1.7259819969597712       1
2.375                     0.15000000000000002      1.7249107690462484       1
2.425                     0.15000000000000002      1.7240386328625403       1
2.4749999999999996        0.15000000000000002      1.7230638336621942       1
2.5250000000000004        0.15000000000000002      1.7220914462973513       1
2.575                     0.15000000000000002      1.721228879688216        1
2.625                     0.15000000000000002      1.7203663130790798       1
2.675                     0.15000000000000002      1.7194953616113828       1
2.7249999999999996        0.15000000000000002      1.7189473869609944       1
2.7750000000000004        0.15000000000000002      1.7180896042457885       1
2.825                     0.15000000000000002      1.7170973878342266       1
2.875                     0.15000000000000002      1.7164412463162928       1
2.9250000000000007        0.15000000000000002      1.7158962545879146       1
2.975                     0.15000000000000002      1.7153512628595369       1
3.025                     0.15000000000000002      1.714862253525867        1
3.0749999999999997        0.15000000000000002      1.7142663494760946       1
3.1249999999999996        0.15000000000000002      1.7138725233982484       1
3.1750000000000003        0.15000000000000002      1.7133081113396682       1
3.225                     0.15000000000000002      1.7126661178377558       1
3.275                     0.15000000000000002      1.7120241243358438       1
3.3249999999999997        0.15000000000000002      1.711783256759301        1
3.3750000000000004        0.15000000000000002      1.7118457555541053       1
3.4250000000000003        0.15000000000000002      1.7111518535856964       1
3.475                     0.15000000000000002      1.710890706067336        1
3.525                     0.15000000000000002      1.7106295585489777       1
3.5749999999999993        0.15000000000000002      1.710527753929777        1
3.625                     0.15000000000000002      1.710454359659626        1
3.675                     0.15000000000000002      1.7102103334669463       1
3.7249999999999996        0.15000000000000002      1.7100198388891412       1
3.7750000000000004        0.15000000000000002      1.7099749732346363       1
3.825                     0.15000000000000002      1.7100150146005668       1
3.875                     0.15000000000000002      1.7099358804391571       1
3.925                     0.15000000000000002      1.7098773142852641       1
3.9749999999999996        0.15000000000000002      1.7099225317858515       1
4.0249999999999995        0.15000000000000002      -0.006303748698996969    1
4.074999999999999         0.15000000000000002      -0.011308822328742918    1
4.125000000000001         0.15000000000000002      -0.010707993756309264    1
4.175000000000001         0.15000000000000002      -0.01013339974084982     1
4.225                     0.15000000000000002      -0.009601474732792159    1
4.2749999999999995        0.15000000000000002      -0.009183062733991054    1
4.325                     0.15000000000000002      -0.008872033174007754    1
4.375                     0.15000000000000002      -0.00861066084609824     1
4.425                     0.15000000000000002      -0.008443363627855825    1
4.475                     0.15000000000000002      -0.008312858269954199    1
-0.475                    0.25                     -0.004259765536120064    1
-0.425                    0.25                     -0.004448566612626603    1
-0.375                    0.25                     -0.004637367689134031    1
-0.32499999999999996      0.25                     -0.004874040076471964    1
-0.275                    0.25                     -0.005130064040138382    1
-0.22499999999999998      0.25                     -0.005681828015684953    1
-0.17500000000000004      0.25                     -0.006316725374762022    1
-0.12500000000000006      0.25                     -0.0070062514452406965   1
-0.07500000000000001      0.25                     -0.008009758133014522    1
-0.025000000000000022     0.25                     -0.003908275424798546    1
0.024999999999999967      0.25                     1.7831831965499134       1
0.07500000000000007       0.25                     1.7830247969591326       1
0.125                     0.25                     1.782530926711143        1
0.17500000000000004       0.25                     1.7814852266100303       1
0.22499999999999998       0.25                     1.7813643329764035       1
0.275                     0.25                     1.7804439731655284       1
0.32500000000000007       0.25                     1.7796656963262105       1
0.375                     0.25                     1.7788023572385478       1
0.42500000000000004       0.25                     1.777695188808032        1
0.4750000000000001        0.25                     1.7763584511988144       1
0.5249999999999999        0.25                     1.775421416061066        1
0.575                     0.25                     1.774067689918636        1
0.625                     0.25                     1.7731437651038071       1
0.6749999999999998        0.25                     1.7717197508647842       1
0.7250000000000001        0.25                     1.7702797527397607       1
0.7749999999999999        0.25                     1.768875352461217        1
0.8250000000000002        0.25                     1.7674241405252502       1
0.875                     0.25                     1.7660023602221673       1
0.9249999999999999        0.25                     1.7645614320699927       1
0.9749999999999999        0.25                     1.7631288020302822       1
1.025                     0.25                     1.7616193618882885       1
1.075                     0.25                     1.7600587600204474       1
1.125                     0.25                     1.7585836685254064       1
1.175                     0.25                     1.756995256200435        1
1.2249999999999996        0.25                     1.755466770103972        1
1.275                     0.25                     1.7539420518822224       1
1.3250000000000002        0.25                     1.7524187378271237       1
1.375                     0.25                     1.7508831128870144       1
1.4249999999999998        0.25                     1.7493694357500986       1
1.475                     0.25                     1.747886367829313        1
1.5250000000000004        0.25                     1.746383063082677        1
1.575                     0.25                     1.7448505579567128       1
1.625                     0.25                     1.743452662610805        1
1.675                     0.25                     1.7420765999658414       1
1.725                     0.25                     1.740680194229574        1
1.775                     0.25                     1.7392449766047093       1
1.8250000000000002        0.25                     1.7378852088383825       1
1.8749999999999998        0.25                     1.736786698812805        1
1.925                     0.25                     1.7353626881844706       1
1.975                     0.25                     1.7340734237026068       1
2.025                     0.25                     1.7327841592207471       1
2.0749999999999997        0.25                     1.7314948947388777       1
2.1250000000000004        0.25                     1.7304987665145752       1
2.1750000000000003        0.25                     1.7293417714281372       1
2.225                     0.25                     1.7282934931645357       1
2.275                     0.25                     1.727183106706084        1
2.3249999999999993        0.25                     1.726072720247636        1
2.375                     0.25                     1.7249782116166812       1
2.425                     0.25                     1.7239440973459041       1
2.4749999999999996        0.25                     1.722972566415173        1
2.5250000000000004        0.25                     1.722001035484439        1
2.575                     0.25                     1.7211328548561324       1
2.625                     0.25                     1.7204004945171274       1
2.675                     0.25                     1.7196681341781253       1
2.7249999999999996        0.25                     1.7190809637581383       1
2.7750000000000004        0.25                     1.7181182551330039       1
2.825                     0.25                     1.7172657517844603       1
2.875                     0.25                     1.7164132484359156       1
2.9250000000000007        0.25                     1.7158851591636903       1
2.975                     0.25                     1.715582301954901        1
3.025                     0.25                     1.714764664492129        1
3.0749999999999997        0.25                     1.714461184445998        1
3.1249999999999996        0.25                     1.7139547830018949       1
3.1750000000000003        0.25                     1.7132439101330406       1
3.225                     0.25                     1.7131349207445674       1
3.275                     0.25                     1.7124903549765396       1
3.3249999999999997        0.25                     1.7120021238504837       1
3.3750000000000004        0.25                     1.7118022499628438       1
3.4250000000000003        0.25                     1.7118530833799634       1
3.475                     0.25                     1.711226161163671        1
3.525                     0.25                     1.7109757380154464       1
3.5749999999999993        0.25                     1.710725314867225        1
3.625                     0.25                     1.7103258965185955       1
3.675                     0.25                     1.7101727653134207       1
3.7249999999999996        0.25                     1.7100196341082476       1
3.7750000000000004        0.25                     1.709862177887782        1
3.825                     0.25                     1.7100564560234486       1
3.875                     0.25                     1.7099966455555724       1
3.925                     0.25                     1.7099548944291323       1
3.9749999999999996        0.25                     1.7100047871578088       1
4.0249999999999995        0.25                     -0.006298080276072149    1
4.074999999999999         0.25                     -0.011298012384618417    1
4.125000000000001         0.25                     -0.010649061981775176    1
4.175000000000001         0.25                     -0.010119262217444192    1
4.225                     0.25                     -0.009576641658252338    1
4.2749999999999995        0.25                     -0.009117684453540664    1
4.325                     0.25                     -0.008783998491872613    1
4.375                     0.25                     -0.00856336327350471     1
4.425                     0.25                     -0.00834272805513736     1
4.475                     0.25                     -0.008343133753581977    1
-0.475                    0.35000000000000003      -0.003956169628759942    1
-0.425                    0.35000000000000003      -0.004078422657379871    1
-0.375                    0.35000000000000003      -0.004145228734552933    1
-0.32499999999999996      0.35000000000000003      -0.004241890188800277    1
-0.275                    0.35000000000000003      -0.004521993675627556    1
-0.22499999999999998      0.35000000000000003      -0.004840201630590235    1
-0.17500000000000004      0.35000000000000003      -0.005200740696255757    1
-0.12500000000000006      0.35000000000000003      -0.0058229969542820115   1
-0.07500000000000001      0.35000000000000003      -0.006408807339097322    1
-0.025000000000000022     0.35000000000000003      -0.007262254181826133    1
0.024999999999999967      0.35000000000000003      -0.008041974669468988    1
0.07500000000000007       0.35000000000000003      -0.007471507128144594    1
0.125                     0.35000000000000003      -0.004594827471272822    1
0.17500000000000004       0.35000000000000003      -0.001717979614905829    1
0.22499999999999998       0.35000000000000003      0.0011691924978975976    1
0.275                     0.35000000000000003      0.0040572226610748885    1
0.32500000000000007       0.35000000000000003      1.7797503998315634       1
0.375                     0.35000000000000003      1.7787492297090353       1
0.42500000000000004       0.35000000000000003      1.7777182858745677       1
0.4750000000000001        0.35000000000000003      1.7766110219246518       1
0.5249999999999999        0.35000000000000003      1.7753899888629174       1
0.575                     0.35000000000000003      1.774174008684085        1
0.625                     0.35000000000000003      1.7728696687573837       1
0.6749999999999998        0.35000000000000003      1.7714986027524207       1
0.7250000000000001        0.35000000000000003      1.77012613592228         1
0.7749999999999999        0.35000000000000003      1.7687566787949285       1
0.8250000000000002        0.35000000000000003      1.7673082968997527       1
0.875                     0.35000000000000003      1.7656616825038949       1
0.9249999999999999        0.35000000000000003      1.7644434242668428       1
0.9749999999999999        0.35000000000000003      1.7629627152567444       1
1.025                     0.35000000000000003      1.7614260264041484       1
1.075                     0.35000000000000003      1.7599665750734186       1
1.125                     0.35000000000000003      1.7583852714295318       1
1.175                     0.35000000000000003      1.7568968171025166       1
1.2249999999999996        0.35000000000000003      1.7553872927417424       1
1.275                     0.35000000000000003      1.753775542899377        1
1.3250000000000002        0.35000000000000003      1.752277978554103        1
1.375                     0.35000000000000003      1.7507694473457558       1
1.4249999999999998        0.35000000000000003      1.7492609161374073       1
1.475                     0.35000000000000003      1.7477643551614392       1
1.5250000000000004        0.35000000000000003      1.746307495329674        1
1.575                     0.35000000000000003      1.7447782988043308       1
1.625                     0.35000000000000003      1.7433879586421517       1
1.675                     0.35000000000000003      1.7419585065277774       1
1.725                     0.35000000000000003      1.7406711485826634       1
1.775                     0.35000000000000003      1.7392168628461748       1
1.8250000000000002        0.35000000000000003      1.737844828239818        1
1.8749999999999998        0.35000000000000003      1.7365486615518506       1
1.925                     0.35000000000000003      1.735268860177153        1
1.975                     0.35000000000000003      1.7339808391452216       1
2.025                     0.35000000000000003      1.7327309723856672       1
2.0749999999999997        0.35000000000000003      1.7315740640659207       1
2.1250000000000004        0.35000000000000003      1.7303538019975262       1
2.1750000000000003        0.35000000000000003      1.7292892181465813       1
2.225                     0.35000000000000003      1.7281600477835104       1
2.275                     0.35000000000000003      1.7270256201455574       1
2.3249999999999993        0.35000000000000003      1.725996293141667        1
2.375                     0.35000000000000003      1.7250697949167106       1
2.425                     0.35000000000000003      1.7241707587660053       1
2.4749999999999996        0.35000000000000003      1.72319922783527         1
2.5250000000000004        0.35000000000000003      1.722307644616249        1
2.575                     0.35000000000000003      1.7213790233991177       1
2.625                     0.35000000000000003      1.7205273161443662       1
2.675                     0.35000000000000003      1.7199682497001874       1
2.7249999999999996        0.35000000000000003      1.7192034368468323       1
2.7750000000000004        0.35000000000000003      1.7181657190262363       1
2.825                     0.35000000000000003      1.7175539393735633       1
2.875                     0.35000000000000003      1.7167225694780202       1
2.9250000000000007        0.35000000000000003      1.7162571130103514       1
2.975                     0.35000000000000003      1.7153984677207115       1
3.025                     0.35000000000000003      1.7148338305891249       1
3.0749999999999997        0.35000000000000003      1.7142691934575351       1
3.1249999999999996        0.35000000000000003      1.7137374602472464       1
3.1750000000000003        0.35000000000000003      1.713295469320717        1
3.225                     0.35000000000000003      1.7128534783941898       1
3.275                     0.35000000000000003      1.7124114874676588       1
3.3249999999999997        0.35000000000000003      1.7120187329274361       1
3.3750000000000004        0.35000000000000003      1.7117098306345324       1
3.4250000000000003        0.35000000000000003      1.7114009283416263       1
3.475                     0.35000000000000003      1.7110920260487226       1