% Model:              nc_magnet_1.mph
% Version:            COMSOL 6.2.0.415
% Date:               Feb 3 2025, 10:41
% Dimension:          2
% Nodes:              3000
% Expressions:        2
% Description:        Point
% cpl7x                   cpl7y                    Magnetic flux density, x-component Radius
-0.475                    0.05                     2.772463221860644E-4     1
-0.425                    0.05                     2.772463221860644E-4     1
-0.37499999999999994      0.05                     2.851253548055155E-4     1
-0.32499999999999996      0.05                     2.798586952011198E-4     1
-0.2749999999999999       0.05                     3.2033849325524555E-4    1
-0.22499999999999992      0.05                     3.188266982576682E-4     1
-0.17499999999999993      0.05                     3.40163831146878E-4      1
-0.12499999999999994      0.05                     3.2992574346302206E-4    1
-0.0749999999999999       0.05                     1.9251949121779077E-4    1
-0.02499999999999991      0.05                     1.0356977419245794E-4    1
0.025000000000000078      0.05                     0.0038110370671873284    1
0.07500000000000007       0.05                     0.003744147550072796     1
0.1250000000000001        0.05                     0.0030991168132448177    1
0.17500000000000016       0.05                     0.0030270638627385438    1
0.2250000000000001        0.05                     0.001516466086895818     1
0.27500000000000013       0.05                     0.0035121545493073114    1
0.3250000000000002        0.05                     -0.004465487508388932    1
0.3750000000000001        0.05                     8.300957042493007E-4     1
0.42500000000000016       0.05                     9.403247502248746E-4     1
0.4750000000000002        0.05                     9.428217647879933E-4     1
0.5250000000000001        0.05                     9.428217647879933E-4     1
0.5750000000000002        0.05                     9.428217647879933E-4     1
0.6250000000000002        0.05                     -0.012747705047870816    1
0.675                     0.05                     0.0032866522855230507    1
0.7250000000000003        0.05                     0.0012286336370259665    1
0.7750000000000001        0.05                     0.0012286336370259665    1
0.8250000000000004        0.05                     0.0012286336370246342    1
0.8750000000000002        0.05                     -0.014579837025095799    1
0.9250000000000002        0.05                     0.001396139653647932     1
0.9750000000000001        0.05                     0.001396139653647932     1
1.0250000000000004        0.05                     0.001396139653647932     1
1.0750000000000002        0.05                     0.001396139653647932     1
1.1250000000000004        0.05                     0.0015589265892508308    1
1.1750000000000003        0.05                     8.669918131785082E-4     1
1.225                     0.05                     0.001321009385348404     1
1.2750000000000001        0.05                     0.001321009385348404     1
1.3250000000000002        0.05                     0.001276151094173894     1
1.3750000000000004        0.05                     0.00127615109417345      1
1.4250000000000003        0.05                     -0.0010244611255034175   1
1.4750000000000005        0.05                     -0.0010244611255030012   1
1.5250000000000004        0.05                     -0.0010244611255032787   1
1.5750000000000004        0.05                     -0.011807672989124107    1
1.6250000000000004        0.05                     -0.00870691015991909     1
1.6750000000000005        0.05                     0.01173742163689262      1
1.7250000000000005        0.05                     0.0013646740945567615    1
1.7750000000000004        0.05                     0.0013646740945567615    1
1.8250000000000006        0.05                     0.0013646740945567615    1
1.8750000000000002        0.05                     6.450174639498485E-4     1
1.9250000000000005        0.05                     -2.457602942813608E-4    1
1.9750000000000005        0.05                     -2.457602942809167E-4    1
2.0250000000000004        0.05                     -2.457602942813608E-4    1
2.075                     0.05                     -2.4576029428047264E-4   1
2.125000000000001         0.05                     5.67920326210114E-4      1
2.1750000000000007        0.05                     5.741576258517789E-4     1
2.2250000000000005        0.05                     5.741576258517789E-4     1
2.2750000000000004        0.05                     5.741576258517789E-4     1
2.325                     0.05                     5.741576258517789E-4     1
2.3750000000000004        0.05                     5.741576258517789E-4     1
2.4250000000000003        0.05                     5.741576258517789E-4     1
2.475                     0.05                     -0.003299766533499948    1
2.5250000000000004        0.05                     0.002131327257544058     1
2.5750000000000006        0.05                     9.095098075120323E-4     1
2.6250000000000004        0.05                     9.095098075124763E-4     1
2.6750000000000007        0.05                     9.095098075120323E-4     1
2.7250000000000005        0.05                     9.095098075124763E-4     1
2.775000000000001         0.05                     9.095098075122543E-4     1
2.8250000000000006        0.05                     9.095098075122543E-4     1
2.875000000000001         0.05                     -0.001968133314879772    1
2.9250000000000007        0.05                     0.0015811446075131297    1
2.9750000000000005        0.05                     2.2661512931097816E-4    1
3.0250000000000004        0.05                     5.771662999520537E-4     1
3.0750000000000006        0.05                     9.277174705928986E-4     1
3.1250000000000004        0.05                     0.0012782686412334526    1
3.1750000000000007        0.05                     0.0016288198118740646    1
3.2250000000000005        0.05                     5.161250739029594E-4     1
3.275000000000001         0.05                     4.711826795771312E-4     1
3.3250000000000006        0.05                     4.711826795770202E-4     1
3.375000000000001         0.05                     4.7118267957724225E-4    1
3.4250000000000007        0.05                     4.711826795779084E-4     1
3.475000000000001         0.05                     6.332116635769103E-4     1
3.525000000000001         0.05                     6.175732368908227E-4     1
3.575                     0.05                     9.046854784718061E-4     1
3.6250000000000004        0.05                     0.001026925062501849     1
3.6750000000000007        0.05                     0.0010951297974959306    1
3.7250000000000005        0.05                     0.001115887222417733     1
3.7750000000000004        0.05                     8.72915486268E-4         1
3.8250000000000006        0.05                     0.0015950087457758944    1
3.875000000000001         0.05                     9.582289089160589E-4     1
3.9250000000000007        0.05                     9.848910774117314E-4     1
3.9750000000000005        0.05                     9.815987359486633E-4     1
4.025                     0.05                     1.3151588217574783E-5    1
4.075000000000001         0.05                     3.1722023843272495E-6    1
4.125000000000002         0.05                     -4.5355616355990946E-5   1
4.175000000000002         0.05                     9.815676850294386E-5     1
4.2250000000000005        0.05                     2.8699552299948916E-5    1
4.275                     0.05                     5.112827895681349E-5     1
4.325000000000001         0.05                     5.423850758135007E-5     1
4.375000000000001         0.05                     5.423850758135007E-5     1
4.425000000000001         0.05                     5.159741093230252E-5     1
4.4750000000000005        0.05                     -1.4771716352335318E-5   1
-0.475                    0.15000000000000002      8.273924733426252E-4     1
-0.425                    0.15000000000000002      8.221258137370846E-4     1
-0.37499999999999994      0.15000000000000002      8.168591541319881E-4     1
-0.32499999999999996      0.15000000000000002      9.207633305570728E-4     1
-0.2749999999999999       0.15000000000000002      0.0010587051336986703    1
-0.22499999999999992      0.15000000000000002      0.0011338427492053882    1
-0.17499999999999993      0.15000000000000002      0.0011674553526184184    1
-0.12499999999999994      0.15000000000000002      0.001230271784301351     1
-0.0749999999999999       0.15000000000000002      9.645366569417391E-4     1
-0.02499999999999991      0.15000000000000002      4.292952406732553E-4     1
0.025000000000000078      0.15000000000000002      0.011430615705338099     1
0.07500000000000007       0.15000000000000002      0.009109588717663542     1
0.1250000000000001        0.15000000000000002      0.007273927243490519     1
0.17500000000000016       0.15000000000000002      0.006003536473075499     1
0.2250000000000001        0.15000000000000002      0.0044660953647193136    1
0.27500000000000013       0.15000000000000002      -0.004097804685356143    1
0.3250000000000002        0.15000000000000002      -0.0018841400422948684   1
0.3750000000000001        0.15000000000000002      -0.00446794114273219     1
0.42500000000000016       0.15000000000000002      -4.3463523485653965E-4   1
0.4750000000000002        0.15000000000000002      -7.146321285800283E-4    1
0.5250000000000001        0.15000000000000002      -9.946290223061816E-4    1
0.5750000000000002        0.15000000000000002      -2.02949833738586E-5     1
0.6250000000000002        0.15000000000000002      -0.0018236054181617334   1
0.675                     0.15000000000000002      -0.0019906637849771425   1
0.7250000000000003        0.15000000000000002      -0.001675594899545274    1
0.7750000000000001        0.15000000000000002      -9.611632040646967E-4    1
0.8250000000000004        0.15000000000000002      -0.0020669029149651408   1
0.8750000000000002        0.15000000000000002      -0.004302317827043822    1
0.9250000000000002        0.15000000000000002      -0.0023195658861626667   1
0.9750000000000001        0.15000000000000002      -0.0013406593750833196   1
1.0250000000000004        0.15000000000000002      0.004188418960943352     1
1.0750000000000002        0.15000000000000002      0.004188418960943352     1
1.1250000000000004        0.15000000000000002      9.326834460825495E-4     1
1.1750000000000003        0.15000000000000002      -2.9632180765659655E-4   1
1.225                     0.15000000000000002      6.712971732625306E-4     1
1.2750000000000001        0.15000000000000002      5.591485926266238E-4     1
1.3250000000000002        0.15000000000000002      4.470000119941586E-4     1
1.3750000000000004        0.15000000000000002      0.0031687973566315586    1
1.4250000000000003        0.15000000000000002      -0.003073383376509753    1
1.4750000000000005        0.15000000000000002      -0.002107918481701887    1
1.5250000000000004        0.15000000000000002      -0.0026705310222130407   1
1.5750000000000004        0.15000000000000002      -0.003233143562727747    1
1.6250000000000004        0.15000000000000002      -0.0019652184480669632   1
1.6750000000000005        0.15000000000000002      -0.0016496925081872504   1
1.7250000000000005        0.15000000000000002      -0.0013341665683075377   1
1.7750000000000004        0.15000000000000002      0.004094022283671173     1
1.8250000000000006        0.15000000000000002      0.004094022283671173     1
1.8750000000000002        0.15000000000000002      7.70546455382437E-4      1
1.9250000000000005        0.15000000000000002      5.636856947384139E-4     1
1.9750000000000005        0.15000000000000002      3.568249340935026E-4     1
2.0250000000000004        0.15000000000000002      -4.278105367010454E-4    1
2.075                     0.15000000000000002      -2.660504931117913E-4    1
2.125000000000001         0.15000000000000002      7.185762168733234E-4     1
2.1750000000000007        0.15000000000000002      0.0026853383243956586    1
2.2250000000000005        0.15000000000000002      0.0017224728775557807    1
2.2750000000000004        0.15000000000000002      0.0017224728775557807    1
2.325                     0.15000000000000002      0.0017224728775557807    1
2.3750000000000004        0.15000000000000002      0.0017224728775557807    1
2.4250000000000003        0.15000000000000002      -1.1947079214602585E-4   1
2.475                     0.15000000000000002      4.605437552186453E-4     1
2.5250000000000004        0.15000000000000002      0.0010985881320358937    1
2.5750000000000006        0.15000000000000002      9.249161225030611E-4     1
2.6250000000000004        0.15000000000000002      7.512441129744474E-4     1
2.6750000000000007        0.15000000000000002      0.0013354306283298034    1
2.7250000000000005        0.15000000000000002      0.002728529422536319     1
2.775000000000001         0.15000000000000002      0.0027285294225358747    1
2.8250000000000006        0.15000000000000002      -0.0018748500744778518   1
2.875000000000001         0.15000000000000002      8.436075729814363E-4     1
2.9250000000000007        0.15000000000000002      0.0014156790981357525    1
2.9750000000000005        0.15000000000000002      0.001360307400589733     1
3.0250000000000004        0.15000000000000002      0.0013224474147886765    1
3.0750000000000006        0.15000000000000002      0.001672998585428494     1
3.1250000000000004        0.15000000000000002      0.0020235497560694045    1
3.1750000000000007        0.15000000000000002      0.0021028007897423706    1
3.2250000000000005        0.15000000000000002      0.0015657135781641518    1
3.275000000000001         0.15000000000000002      0.0016855847380949918    1
3.3250000000000006        0.15000000000000002      0.0016975608775309237    1
3.375000000000001         0.15000000000000002      0.001709537016969076     1
3.4250000000000007        0.15000000000000002      0.0015416400448243772    1
3.475000000000001         0.15000000000000002      0.0021536654803552616    1
3.525000000000001         0.15000000000000002      0.0022113527831821925    1
3.575                     0.15000000000000002      0.002888682132164113     1
3.6250000000000004        0.15000000000000002      0.0025211392118364984    1
3.6750000000000007        0.15000000000000002      0.002730686971991858     1
3.7250000000000005        0.15000000000000002      0.0029402347321447753    1
3.7750000000000004        0.15000000000000002      0.0027591883409924245    1
3.8250000000000006        0.15000000000000002      0.002862703842470893     1
3.875000000000001         0.15000000000000002      0.002833617907883834     1
3.9250000000000007        0.15000000000000002      0.0028646427058003354    1
3.9750000000000005        0.15000000000000002      0.0031252877135321544    1
4.025                     0.15000000000000002      -1.6180050713465732E-5   1
4.075000000000001         0.15000000000000002      7.764804919863089E-5     1
4.125000000000002         0.15000000000000002      -1.1987926732182075E-5   1
4.175000000000002         0.15000000000000002      1.9650875374033205E-5    1
4.2250000000000005        0.15000000000000002      7.23294876436853E-5      1
4.275                     0.15000000000000002      1.6318686173230623E-4    1
4.325000000000001         0.15000000000000002      1.5155568502767114E-4    1
4.375000000000001         0.15000000000000002      1.5689811785590813E-4    1
4.425000000000001         0.15000000000000002      1.377519866654353E-4     1
4.4750000000000005        0.15000000000000002      1.3991272754632078E-4    1
-0.475                    0.25                     0.001256664780492578     1
-0.425                    0.25                     0.0012994864150226992    1
-0.37499999999999994      0.25                     0.0014003201689039013    1
-0.32499999999999996      0.25                     0.0015473798771510339    1
-0.2749999999999999       0.25                     0.0016944395853987389    1
-0.22499999999999992      0.25                     0.0020945270968081783    1
-0.17499999999999993      0.25                     0.002510031436874477     1
-0.12499999999999994      0.25                     0.002991008880170787     1
-0.0749999999999999       0.25                     0.003579074096537127     1
-0.02499999999999991      0.25                     0.0023007998219739534    1
0.025000000000000078      0.25                     0.018471388597401273     1
0.07500000000000007       0.25                     0.011020353566202346     1
0.1250000000000001        0.25                     0.008274797236570097     1
0.17500000000000016       0.25                     0.006645569261108264     1
0.2250000000000001        0.25                     0.001820468846242207     1
0.27500000000000013       0.25                     0.002663411298729379     1
0.3250000000000002        0.25                     -1.0933149894221117E-4   1
0.3750000000000001        0.25                     -4.356749769377499E-4    1
0.42500000000000016       0.25                     -6.182998666446338E-4    1
0.4750000000000002        0.25                     -0.0015285890842388627   1
0.5250000000000001        0.25                     -0.002112475486455878    1
0.5750000000000002        0.25                     -0.00218189705866223     1
0.6250000000000002        0.25                     -0.0023143811441168616   1
0.675                     0.25                     -0.002516718022892883    1
0.7250000000000003        0.25                     -0.003260002661360506    1
0.7750000000000001        0.25                     -0.003284059884107293    1
0.8250000000000004        0.25                     -0.008222458763062157    1
0.8750000000000002        0.25                     -0.008533890082096818    1
0.9250000000000002        0.25                     -0.003990232980976227    1
0.9750000000000001        0.25                     -0.0030113264698932163   1
1.0250000000000004        0.25                     -0.0020324199588093173   1
1.0750000000000002        0.25                     -0.005454162395457152    1
1.1250000000000004        0.25                     -0.002591192879728643    1
1.1750000000000003        0.25                     -0.0027957333132579976   1
1.225                     0.25                     -0.003126721067352456    1
1.2750000000000001        0.25                     -0.002654075367366865    1
1.3250000000000002        0.25                     -0.002375552446700846    1
1.3750000000000004        0.25                     -0.0037623138372328696   1
1.4250000000000003        0.25                     -0.002470507481637352    1
1.4750000000000005        0.25                     -0.0031804600467590927   1
1.5250000000000004        0.25                     -7.22491065013986E-4     1
1.5750000000000004        0.25                     -0.006259549139901566    1
1.6250000000000004        0.25                     -0.0012724965948036626   1
1.6750000000000005        0.25                     -0.0014746729516948442   1
1.7250000000000005        0.25                     -0.0016768493085874692   1
1.7750000000000004        0.25                     -2.3981000709261124E-4   1
1.8250000000000006        0.25                     -0.0047338315821248145   1
1.8750000000000002        0.25                     -7.366918135476297E-4    1
1.9250000000000005        0.25                     -7.076405756203386E-4    1
1.9750000000000005        0.25                     -6.785893376983765E-4    1
2.0250000000000004        0.25                     -0.0014266338035593407   1
2.075                     0.25                     -5.653293402050341E-4    1
2.125000000000001         0.25                     -5.0805036272214E-4      1
2.1750000000000007        0.25                     -6.372054814769434E-4    1
2.2250000000000005        0.25                     -9.549359815568259E-4    1
2.2750000000000004        0.25                     -9.433872605713045E-6    1
2.325                     0.25                     2.0124713536051608E-4    1
2.3750000000000004        0.25                     -3.762574484873493E-4    1
2.4250000000000003        0.25                     2.0375709887421323E-4    1
2.475                     0.25                     7.837716462372191E-4     1
2.5250000000000004        0.25                     0.0012311142212658166    1
2.5750000000000006        0.25                     0.001057442211731735     1
2.6250000000000004        0.25                     8.837702022047311E-4     1
2.6750000000000007        0.25                     7.100981926714267E-4     1
2.7250000000000005        0.25                     5.36426183140648E-4      1
2.775000000000001         0.25                     6.620706683223843E-4     1
2.8250000000000006        0.25                     0.0010298855835668037    1
2.875000000000001         0.25                     0.0016019571087237455    1
2.9250000000000007        0.25                     0.002174028633875502     1
2.9750000000000005        0.25                     0.0023504102690433126    1
3.0250000000000004        0.25                     0.002328148423084042     1
3.0750000000000006        0.25                     0.0022198171459839253    1
3.1250000000000004        0.25                     0.0021282477504559662    1
3.1750000000000007        0.25                     0.002036678354928566     1
3.2250000000000005        0.25                     -0.001078067219018486    1
3.275000000000001         0.25                     -0.0011309534305137259   1
3.3250000000000006        0.25                     -0.0011838396420115194   1
3.375000000000001         0.25                     0.002680845238545282     1
3.4250000000000007        0.25                     0.0028714055450453912    1
3.475000000000001         0.25                     0.003349799593378222     1
3.525000000000001         0.25                     0.003437044215875762     1
3.575                     0.25                     0.0035402390115894244    1
3.6250000000000004        0.25                     0.0036702587687604815    1
3.6750000000000007        0.25                     0.004349459534592093     1
3.7250000000000005        0.25                     0.004763235189038317     1
3.7750000000000004        0.25                     0.004911004215908843     1
3.8250000000000006        0.25                     0.005058773242782255     1
3.875000000000001         0.25                     0.005024815934763893     1
3.9250000000000007        0.25                     0.00513256128417966      1
3.9750000000000005        0.25                     0.005112286762924745     1
4.025                     0.25                     3.843399586855867E-5     1
4.075000000000001         0.25                     1.0386019636143828E-4    1
4.125000000000002         0.25                     1.1789538844020342E-4    1
4.175000000000002         0.25                     1.670935788334882E-4     1
4.2250000000000005        0.25                     1.9554383423248112E-4    1
4.275                     0.25                     1.9472858589920927E-4    1
4.325000000000001         0.25                     2.6723661567773505E-4    1
4.375000000000001         0.25                     2.3565721160628827E-4    1
4.425000000000001         0.25                     2.6105332619669186E-4    1
4.4750000000000005        0.25                     2.864494407866418E-4     1
-0.475                    0.35                     0.0015264735154142083    1
-0.425                    0.35                     0.0015720129296252772    1
-0.37499999999999994      0.35                     0.0018136392993655104    1
-0.32499999999999996      0.35                     0.002049031402095447     1
-0.2749999999999999       0.35                     0.0022236405239051127    1
-0.22499999999999992      0.35                     0.003018410100358637     1
-0.17499999999999993      0.35                     0.003887890797510618     1
-0.12499999999999994      0.35                     0.005154839604699979     1
-0.0749999999999999       0.35                     0.007375929096894218     1
-0.02499999999999991      0.35                     0.011247640570864803     1
0.025000000000000078      0.35                     0.014914955999779544     1
0.07500000000000007       0.35                     0.016027020737766406     1
0.1250000000000001        0.35                     0.01597554836465065      1
0.17500000000000016       0.35                     0.016561853545617566     1
0.2250000000000001        0.35                     0.01656737231952654      1
0.27500000000000013       0.35                     0.01697786495019482      1
0.3250000000000002        0.35                     -0.0037305462449657156   1
0.3750000000000001        0.35                     -0.005440987215379778    1
0.42500000000000016       0.35                     -0.0059284084752366795   1
0.4750000000000002        0.35                     -0.007194854747297086    1
0.5250000000000001        0.35                     -0.007627563474459698    1
0.5750000000000002        0.35                     -0.008432377920327028    1
0.6250000000000002        0.35                     -0.009804070790302433    1
0.675                     0.35                     -0.008327862202156089    1
0.7250000000000003        0.35                     -0.009213648826595922    1
0.7750000000000001        0.35                     -0.010584291967955295    1
0.8250000000000004        0.35                     -0.010998641857698721    1
0.8750000000000002        0.35                     -0.009367173369043247    1
0.9250000000000002        0.35                     -0.008431975747659415    1
0.9750000000000001        0.35                     -0.009004060348797083    1
1.0250000000000004        0.35                     -0.007888389852554134    1
1.0750000000000002        0.35                     -0.0065384725759289886   1
1.1250000000000004        0.35                     -0.0076744435485499585   1
1.1750000000000003        0.35                     -0.007831527313000741    1
1.225                     0.35                     -0.008001085699892663    1
1.2750000000000001        0.35                     -0.006627618709565297    1
1.3250000000000002        0.35                     -0.007989181138608137    1
1.3750000000000004        0.35                     -0.0059244213428240045   1
1.4250000000000003        0.35                     -0.005285814704417469    1
1.4750000000000005        0.35                     -0.005702806773926206    1
1.5250000000000004        0.35                     -0.005228949265298155    1
1.5750000000000004        0.35                     -0.0048030451260374085   1
1.6250000000000004        0.35                     -0.003863550842786889    1
1.6750000000000005        0.35                     -0.004392925098784417    1
1.7250000000000005        0.35                     -0.005157488220999706    1
1.7750000000000004        0.35                     -0.005064104237618494    1
1.8250000000000006        0.35                     -0.0029740286767506174   1
1.8750000000000002        0.35                     -0.0028567543309124914   1
1.9250000000000005        0.35                     -0.002155264786054434    1
1.9750000000000005        0.35                     -0.002240937641751206    1
2.0250000000000004        0.35                     -0.001994153411705557    1
2.075                     0.35                     -0.0011614912274287015   1
2.125000000000001         0.35                     -0.002018957585772807    1
2.1750000000000007        0.35                     -0.0019616786082855553   1
2.2250000000000005        0.35                     -0.0012715908173073082   1
2.2750000000000004        0.35                     -0.0013813441356813755   1
2.325                     0.35                     -2.783939079535891E-4    1
2.3750000000000004        0.35                     -0.0012445228646029705   1
2.4250000000000003        0.35                     -1.6063063005056222E-5   1
2.475                     0.35                     5.950739307643005E-4     1
2.5250000000000004        0.35                     5.296602116100502E-5     1
2.5750000000000006        0.35                     6.99689466696074E-5      1
2.6250000000000004        0.35                     -4.5981095504044056E-4   1
2.6750000000000007        0.35                     -8.437069340736514E-4    1
2.7250000000000005        0.35                     7.041173825887981E-4     1
2.775000000000001         0.35                     -9.275796596810437E-4    1
2.8250000000000006        0.35                     0.001236611129009857     1
2.875000000000001         0.35                     9.141705295316882E-4     1
2.9250000000000007        0.35                     0.002188083955951825     1
2.9750000000000005        0.35                     0.003191777922858352     1
3.0250000000000004        0.35                     0.002404362590564535     1
3.0750000000000006        0.35                     0.0024312793578431524    1
3.1250000000000004        0.35                     0.002001768437829732     1
3.1750000000000007        0.35                     -5.135580949058513E-5    1
3.2250000000000005        0.35                     6.633032595848576E-5     1
3.275000000000001         0.35                     0.002964378290637948     1
3.3250000000000006        0.35                     0.003436126681063578     1
3.375000000000001         0.35                     0.003907875071487932     1
3.4250000000000007        0.35                     0.004379623461916893     1
3.475000000000001         0.35                     0.00501571788988997      1