% Model:              nc_magnet_1.mph
% Version:            COMSOL 6.2.0.415
% Date:               Feb 3 2025, 10:42
% Dimension:          2
% Nodes:              3000
% Expressions:        2
% Description:        Point
% cpl8x                   cpl8y                    Magnetic flux density, x-component Radius
-0.475                    0.05                     2.61461184691239E-4      1
-0.425                    0.05                     2.61461184691239E-4      1
-0.375                    0.05                     2.61461184691239E-4      1
-0.32499999999999996      0.05                     2.4994113740677004E-4    1
-0.275                    0.05                     2.264393300157046E-4     1
-0.22499999999999998      0.05                     3.1035727670536417E-4    1
-0.17500000000000004      0.05                     2.360966132829434E-4     1
-0.12500000000000006      0.05                     2.270217699824606E-4     1
-0.07500000000000001      0.05                     1.816406726868891E-4     1
-0.025000000000000022     0.05                     1.816406726868891E-4     1
0.024999999999999967      0.05                     0.39505810172618827      1
0.07500000000000007       0.05                     0.5839973201968687       1
0.125                     0.05                     0.5678836327022068       1
0.17500000000000004       0.05                     0.41326763303925373      1
0.22499999999999998       0.05                     0.42324216681026966      1
0.275                     0.05                     0.293325606688436        1
0.32500000000000007       0.05                     0.293325606688436        1
0.375                     0.05                     0.2941102612261758       1
0.42500000000000004       0.05                     0.2941102612261761       1
0.4750000000000001        0.05                     0.2930514279146048       1
0.5249999999999999        0.05                     0.2930514279146047       1
0.575                     0.05                     0.27235774049738026      1
0.625                     0.05                     0.24695288501217977      1
0.6749999999999998        0.05                     0.21640265971865513      1
0.7250000000000001        0.05                     0.21640265971865513      1
0.7749999999999999        0.05                     0.21640265971865513      1
0.8250000000000002        0.05                     0.21640265971865513      1
0.875                     0.05                     0.3271072519405249       1
0.9249999999999999        0.05                     0.32770028478277574      1
0.9749999999999999        0.05                     0.1912773193758667       1
1.025                     0.05                     0.19150734004437187      1
1.075                     0.05                     0.1915073400443712       1
1.125                     0.05                     0.19150734004437187      1
1.175                     0.05                     0.19150734004437187      1
1.2249999999999996        0.05                     0.1915073400443712       1
1.275                     0.05                     0.19150734004437187      1
1.3250000000000002        0.05                     0.19150734004437142      1
1.375                     0.05                     0.2541551655291521       1
1.4249999999999998        0.05                     0.16830869444250524      1
1.475                     0.05                     0.16830869444250524      1
1.5250000000000004        0.05                     0.2405222985844282       1
1.575                     0.05                     0.2336419670356642       1
1.625                     0.05                     0.2267616354869011       1
1.675                     0.05                     0.2198813039381382       1
1.725                     0.05                     0.213000972389374        1
1.775                     0.05                     0.20612064084061066      1
1.8250000000000002        0.05                     0.15075188090052727      1
1.8749999999999998        0.05                     0.21868794853618945      1
1.925                     0.05                     0.23875988498642783      1
1.975                     0.05                     0.10770772730951961      1
2.025                     0.05                     0.10770772730951961      1
2.0749999999999997        0.05                     0.10770772730951961      1
2.1250000000000004        0.05                     0.10770772730951961      1
2.1750000000000003        0.05                     0.10770772730951961      1
2.225                     0.05                     0.10770772730951961      1
2.275                     0.05                     0.10770772730951961      1
2.3249999999999993        0.05                     -0.005311829268604629    1
2.375                     0.05                     0.027725094650292492     1
2.425                     0.05                     0.15118237460054296      1
2.4749999999999996        0.05                     0.0713777094510285       1
2.5250000000000004        0.05                     0.0713777094510285       1
2.575                     0.05                     0.0713777094510285       1
2.625                     0.05                     0.0713777094510285       1
2.675                     0.05                     0.0713777094510285       1
2.7249999999999996        0.05                     0.0713777094510285       1
2.7750000000000004        0.05                     0.030090229697226967     1
2.825                     0.05                     0.023918703211567804     1
2.875                     0.05                     0.023918703211567804     1
2.9250000000000007        0.05                     0.023918703211567804     1
2.975                     0.05                     0.05611312807747701      1
3.025                     0.05                     0.06550176449601064      1
3.0749999999999997        0.05                     0.057770528189150516     1
3.1249999999999996        0.05                     0.057770528189150516     1
3.1750000000000003        0.05                     0.057770528189150516     1
3.225                     0.05                     0.057770528189150516     1
3.275                     0.05                     0.02671608349326071      1
3.3249999999999997        0.05                     0.01885149256426688      1
3.3750000000000004        0.05                     0.01885149256426688      1
3.4250000000000003        0.05                     0.02750510553901364      1
3.475                     0.05                     0.01859691413351093      1
3.525                     0.05                     0.01859691413351093      1
3.5749999999999993        0.05                     0.01859691413351093      1
3.625                     0.05                     0.01859691413351093      1
3.675                     0.05                     0.01622758541482147      1
3.7249999999999996        0.05                     0.025220264922082847     1
3.7750000000000004        0.05                     0.017514338933981577     1
3.825                     0.05                     0.018542371098834165     1
3.875                     0.05                     0.018542371098834165     1
3.925                     0.05                     0.018542371098834165     1
3.9749999999999996        0.05                     0.028625192490361023     1
4.0249999999999995        0.05                     3.4855788612175864E-5    1
4.074999999999999         0.05                     3.4855788612175864E-5    1
4.125000000000001         0.05                     3.4855788612175864E-5    1
4.175000000000001         0.05                     -2.32494172003328E-5     1
4.225                     0.05                     1.2301615278920153E-4    1
4.2749999999999995        0.05                     -3.282905991852658E-5    1
4.325                     0.05                     9.903841726602303E-5     1
4.375                     0.05                     9.903841726602303E-5     1
4.425                     0.05                     9.903841726602303E-5     1
4.475                     0.05                     9.903841726602303E-5     1
-0.475                    0.15000000000000002      7.498234122203379E-4     1
-0.425                    0.15000000000000002      7.498234122203379E-4     1
-0.375                    0.15000000000000002      7.498234122203379E-4     1
-0.32499999999999996      0.15000000000000002      7.567103744491738E-4     1
-0.275                    0.15000000000000002      8.406283211382926E-4     1
-0.22499999999999998      0.15000000000000002      9.245462678272309E-4     1
-0.17500000000000004      0.15000000000000002      7.082898398489412E-4     1
-0.12500000000000006      0.15000000000000002      7.082898398489412E-4     1
-0.07500000000000001      0.15000000000000002      7.289090131998854E-4     1
-0.025000000000000022     0.15000000000000002      4.427961804289171E-4     1
0.024999999999999967      0.15000000000000002      1.3285893553180161       1
0.07500000000000007       0.15000000000000002      1.2266737829915626       1
0.125                     0.15000000000000002      1.2134848578131194       1
0.17500000000000004       0.15000000000000002      1.2209039600164764       1
0.22499999999999998       0.15000000000000002      1.10059094943077         1
0.275                     0.15000000000000002      1.1005002243051538       1
0.32500000000000007       0.15000000000000002      1.1004094991795395       1
0.375                     0.15000000000000002      1.1383127433833786       1
0.42500000000000004       0.15000000000000002      0.9987990316086335       1
0.4750000000000001        0.15000000000000002      0.8396902582934658       1
0.5249999999999999        0.15000000000000002      0.8142854028082648       1
0.575                     0.15000000000000002      0.8371421844642956       1
0.625                     0.15000000000000002      0.8053657173287163       1
0.6749999999999998        0.15000000000000002      0.7735892501931356       1
0.7250000000000001        0.15000000000000002      0.7902683383233116       1
0.7749999999999999        0.15000000000000002      0.7312029794177772       1
0.8250000000000002        0.15000000000000002      0.7317960122600282       1
0.875                     0.15000000000000002      0.7333306067209664       1
0.9249999999999999        0.15000000000000002      0.7186621913020996       1
0.9749999999999999        0.15000000000000002      0.71368764138172         1
1.025                     0.15000000000000002      0.6217474732619779       1
1.075                     0.15000000000000002      0.6025787026601367       1
1.125                     0.15000000000000002      0.5745220201331147       1
1.175                     0.15000000000000002      0.5745220201331152       1
1.2249999999999996        0.15000000000000002      0.6495102441860969       1
1.275                     0.15000000000000002      0.6458194060047542       1
1.3250000000000002        0.15000000000000002      0.6071127890718339       1
1.375                     0.15000000000000002      0.5894410486968906       1
1.4249999999999998        0.15000000000000002      0.5197118725829774       1
1.475                     0.15000000000000002      0.5049260833275159       1
1.5250000000000004        0.15000000000000002      0.5049260833275159       1
1.575                     0.15000000000000002      0.5049260833275159       1
1.625                     0.15000000000000002      0.5049260833275159       1
1.675                     0.15000000000000002      0.5122770081324437       1
1.725                     0.15000000000000002      0.48343120545134033      1
1.775                     0.15000000000000002      0.39491604786233037      1
1.8250000000000002        0.15000000000000002      0.38414536147618694      1
1.8749999999999998        0.15000000000000002      0.4164515037105383       1
1.925                     0.15000000000000002      0.39407212157877314      1
1.975                     0.15000000000000002      0.40693500915093955      1
2.025                     0.15000000000000002      0.42384485543617095      1
2.0749999999999997        0.15000000000000002      0.3231231819285594       1
2.1250000000000004        0.15000000000000002      0.3231231819285594       1
2.1750000000000003        0.15000000000000002      0.3231231819285594       1
2.225                     0.15000000000000002      0.3231231819285594       1
2.275                     0.15000000000000002      0.2160295946588266       1
2.3249999999999993        0.15000000000000002      0.14384216648771664      1
2.375                     0.15000000000000002      0.22785601096196828      1
2.425                     0.15000000000000002      0.26620373706413464      1
2.4749999999999996        0.15000000000000002      0.2825829905985586       1
2.5250000000000004        0.15000000000000002      0.21413312835308584      1
2.575                     0.15000000000000002      0.21413312835308584      1
2.625                     0.15000000000000002      0.21413312835308584      1
2.675                     0.15000000000000002      0.21413312835308584      1
2.7249999999999996        0.15000000000000002      0.14860539336860135      1
2.7750000000000004        0.15000000000000002      0.11783146372396774      1
2.825                     0.15000000000000002      0.08705753407933414      1
2.875                     0.15000000000000002      0.11988898755800692      1
2.9250000000000007        0.15000000000000002      0.1292776239765403       1
2.975                     0.15000000000000002      0.13866626039507435      1
3.025                     0.15000000000000002      0.14805489681360756      1
3.0749999999999997        0.15000000000000002      0.1574435332321409       1
3.1249999999999996        0.15000000000000002      0.16683216965067338      1
3.1750000000000003        0.15000000000000002      0.17622080606920676      1
3.225                     0.15000000000000002      0.13669919294947475      1
3.275                     0.15000000000000002      0.10610745353415241      1
3.3249999999999997        0.15000000000000002      0.07551571411882874      1
3.3750000000000004        0.15000000000000002      0.08284960727670738      1
3.4250000000000003        0.15000000000000002      0.0851544113377059       1
3.475                     0.15000000000000002      0.08745921539870294      1
3.525                     0.15000000000000002      0.033391566037338616     1
3.5749999999999993        0.15000000000000002      0.0740141437859767       1
3.625                     0.15000000000000002      0.07763138107844475      1
3.675                     0.15000000000000002      0.08093191752675015      1
3.7249999999999996        0.15000000000000002      0.08096767382024289      1
3.7750000000000004        0.15000000000000002      0.08263726826177603      1
3.825                     0.15000000000000002      0.06388185413222325      1
3.875                     0.15000000000000002      0.07710998222868437      1
3.925                     0.15000000000000002      0.07930025280144148      1
3.9749999999999996        0.15000000000000002      0.09275406078783632      1
4.0249999999999995        0.15000000000000002      1.351111166876251E-4     1
4.074999999999999         0.15000000000000002      1.2152345634053319E-4    1
4.125000000000001         0.15000000000000002      1.4439189866966018E-4    1
4.175000000000001         0.15000000000000002      1.687490117792123E-4     1
4.225                     0.15000000000000002      2.3867658782172896E-4    1
4.2749999999999995        0.15000000000000002      2.0352800634881874E-4    1
4.325                     0.15000000000000002      2.574080761845732E-4     1
4.375                     0.15000000000000002      2.4265916131804843E-4    1
4.425                     0.15000000000000002      2.9711525179809684E-4    1
4.475                     0.15000000000000002      2.9711525179809684E-4    1
-0.475                    0.25                     0.0010338934464890256    1
-0.425                    0.25                     0.0011729235555470556    1
-0.375                    0.25                     0.0012555760269801763    1
-0.32499999999999996      0.25                     0.0013382284984133318    1
-0.275                    0.25                     0.0014208809698465462    1
-0.22499999999999998      0.25                     0.0015035334412796591    1
-0.17500000000000004      0.25                     0.0015861859127130323    1
-0.12500000000000006      0.25                     0.0019241889577644167    1
-0.07500000000000001      0.25                     0.0015207662180296566    1
-0.025000000000000022     0.25                     0.0014811247962432383    1
0.024999999999999967      0.25                     1.6102672915938425       1
0.07500000000000007       0.25                     1.5884930802084811       1
0.125                     0.25                     1.6641937645280087       1
0.17500000000000004       0.25                     1.5801067623887377       1
0.22499999999999998       0.25                     1.551482268651066        1
0.275                     0.25                     1.5443566493768648       1
0.32500000000000007       0.25                     1.5031149443930778       1
0.375                     0.25                     1.481269674270488        1
0.42500000000000004       0.25                     1.463844941067652        1
0.4750000000000001        0.25                     1.3977793596646333       1
0.5249999999999999        0.25                     1.355751430640802        1
0.575                     0.25                     1.313723501616972        1
0.625                     0.25                     1.2625461478820377       1
0.6749999999999998        0.25                     1.2593301618189428       1
0.7250000000000001        0.25                     1.2340907604489033       1
0.7749999999999999        0.25                     1.2088513590788657       1
0.8250000000000002        0.25                     1.104879516614701        1
0.875                     0.25                     1.0902111011958338       1
0.9249999999999999        0.25                     1.0755426857769679       1
0.9749999999999999        0.25                     1.0833356218713315       1
1.025                     0.25                     1.0537147573056806       1
1.075                     0.25                     1.0240938927400327       1
1.125                     0.25                     1.0823279778165007       1
1.175                     0.25                     1.0661842838370343       1
1.2249999999999996        0.25                     0.9777421529894619       1
1.275                     0.25                     0.9600704126145173       1
1.3250000000000002        0.25                     0.9423986722395736       1
1.375                     0.25                     0.9247269318646313       1
1.4249999999999998        0.25                     0.9070551914896832       1
1.475                     0.25                     0.9067099395431713       1
1.5250000000000004        0.25                     0.8415434722125266       1
1.575                     0.25                     0.8582472902312761       1
1.625                     0.25                     0.8161105300021516       1
1.675                     0.25                     0.7833419619351956       1
1.725                     0.25                     0.7298647598168779       1
1.775                     0.25                     0.8261225206253469       1
1.8250000000000002        0.25                     0.8233202144464316       1
1.8749999999999998        0.25                     0.7982433437426308       1
1.925                     0.25                     0.7094456550771056       1
1.975                     0.25                     0.6764009951188725       1
2.025                     0.25                     0.6433563351606385       1
2.0749999999999997        0.25                     0.5920199796006826       1
2.1250000000000004        0.25                     0.6089298258859143       1
2.1750000000000003        0.25                     0.5385386365475995       1
2.225                     0.25                     0.43737101858625843      1
2.275                     0.25                     0.3651835904151486       1
2.3249999999999993        0.25                     0.5186035650223101       1
2.375                     0.25                     0.48667292050991123      1
2.425                     0.25                     0.45474227599751305      1
2.4749999999999996        0.25                     0.4228116314851163       1
2.5250000000000004        0.25                     0.4139836065965772       1
2.575                     0.25                     0.3568885472551422       1
2.625                     0.25                     0.2978944866846086       1
2.675                     0.25                     0.26712055703997456      1
2.7249999999999996        0.25                     0.2363466273953414       1
2.7750000000000004        0.25                     0.30519655138658         1
2.825                     0.25                     0.29010749215588844      1
2.875                     0.25                     0.27501843292519934      1
2.9250000000000007        0.25                     0.26519092092844976      1
2.975                     0.25                     0.23185735278245256      1
3.025                     0.25                     0.23060802913120335      1
3.0749999999999997        0.25                     0.23999666554973664      1
3.1249999999999996        0.25                     0.2494735390942221       1
3.1750000000000003        0.25                     0.24134796033407124      1
3.225                     0.25                     0.23322238157391828      1
3.275                     0.25                     0.18549882357504377      1
3.3249999999999997        0.25                     0.17351822051214597      1
3.3750000000000004        0.25                     0.17582302457314353      1
3.4250000000000003        0.25                     0.1781278286341439       1
3.475                     0.25                     0.1804326326951442       1
3.525                     0.25                     0.1735098461024639       1
3.5749999999999993        0.25                     0.1666646893739756       1
3.625                     0.25                     0.18512617801975262      1
3.675                     0.25                     0.1556946390891307       1
3.7249999999999996        0.25                     0.1557303953826229       1
3.7750000000000004        0.25                     0.17533602158203498      1
3.825                     0.25                     0.14965581017040597      1
3.875                     0.25                     0.12397559875877351      1
3.925                     0.25                     0.13691315615960153      1
3.9749999999999996        0.25                     0.13665740536666893      1
4.0249999999999995        0.25                     1.661365148090052E-4     1
4.074999999999999         0.25                     2.1732208285701188E-4    1
4.125000000000001         0.25                     2.777115590575918E-4     1
4.175000000000001         0.25                     3.476391350993868E-4     1
4.225                     0.25                     4.175667111425696E-4     1
4.2749999999999995        0.25                     4.398850726169412E-4     1
4.325                     0.25                     4.937651424532508E-4     1
4.375                     0.25                     5.476452122885611E-4     1
4.425                     0.25                     5.214275789436895E-4     1
4.475                     0.25                     5.549717082657946E-4     1
-0.475                    0.35                     0.0015183226259358107    1
-0.425                    0.35                     0.001618966721953604     1
-0.375                    0.35                     0.001762430518310191     1
-0.32499999999999996      0.35                     0.0018469970260306867    1
-0.275                    0.35                     0.0019315635337513286    1
-0.22499999999999998      0.35                     0.002016130041471822     1
-0.17500000000000004      0.35                     0.002100696549192321     1
-0.12500000000000006      0.35                     0.002464076588837877     1
-0.07500000000000001      0.35                     0.002889876938212632     1
-0.025000000000000022     0.35                     0.0033156772875853058    1
0.024999999999999967      0.35                     1.7410499082071706       1
0.07500000000000007       0.35                     1.7355152199203516       1
0.125                     0.35                     1.7559526431464918       1
0.17500000000000004       0.35                     1.7292407807846417       1
0.22499999999999998       0.35                     1.7273916609787123       1
0.275                     0.35                     1.7319674273542702       1
0.32500000000000007       0.35                     1.7167522449124974       1
0.375                     0.35                     1.7043109440365591       1
0.42500000000000004       0.35                     1.689628414263411        1
0.4750000000000001        0.35                     1.6711314164529145       1
0.5249999999999999        0.35                     1.649202292250472        1
0.575                     0.35                     1.645736449365453        1
0.625                     0.35                     1.6527815660512197       1
0.6749999999999998        0.35                     1.6000297067395228       1
0.7250000000000001        0.35                     1.5747903053694834       1
0.7749999999999999        0.35                     1.5567037202529708       1
0.8250000000000002        0.35                     1.5463754695977379       1
0.875                     0.35                     1.5360472189425098       1
0.9249999999999999        0.35                     1.5257189682872796       1
0.9749999999999999        0.35                     1.449532000427332        1
1.025                     0.35                     1.4154092265676357       1
1.075                     0.35                     1.3812864527079411       1
1.125                     0.35                     1.3738692332357452       1
1.175                     0.35                     1.3595435869753645       1
1.2249999999999996        0.35                     1.3386114585821154       1
1.275                     0.35                     1.2837482611829287       1
1.3250000000000002        0.35                     1.2690588230026314       1
1.375                     0.35                     1.2543693848223323       1
1.4249999999999998        0.35                     1.2396799466420356       1
1.475                     0.35                     1.2503654056711848       1
1.5250000000000004        0.35                     1.1940806989751565       1
1.575                     0.35                     1.1160212864860088       1
1.625                     0.35                     1.0755841581575696       1
1.675                     0.35                     1.064813471771425        1
1.725                     0.35                     1.1386053823600542       1
1.775                     0.35                     1.1189941964786136       1
1.8250000000000002        0.35                     1.0938262371397092       1
1.8749999999999998        0.35                     1.0687493664359091       1
1.925                     0.35                     1.0585813980914223       1
1.975                     0.35                     0.9917745286172033       1
2.025                     0.35                     0.9587298686589697       1
2.0749999999999997        0.35                     0.9256852087007365       1
2.1250000000000004        0.35                     0.7601951037651951       1
2.1750000000000003        0.35                     0.7579552935361346       1
2.225                     0.35                     0.5865250143425813       1
2.275                     0.35                     0.809351119082651        1
2.3249999999999993        0.35                     0.7774204745702524       1
2.375                     0.35                     0.745489830057856        1
2.425                     0.35                     0.7135591855454576       1
2.4749999999999996        0.35                     0.6816285410330597       1
2.5250000000000004        0.35                     0.649697896520662        1
2.575                     0.35                     0.4789006516047475       1
2.625                     0.35                     0.4660737351319539       1
2.675                     0.35                     0.5458139023899065       1
2.7249999999999996        0.35                     0.530724843159218        1
2.7750000000000004        0.35                     0.5156357839285264       1
2.825                     0.35                     0.5005467246978371       1
2.875                     0.35                     0.48545766546714675      1
2.9250000000000007        0.35                     0.4754800178120311       1
2.975                     0.35                     0.44214644966603656      1
3.025                     0.35                     0.4007916135155749       1
3.0749999999999997        0.35                     0.3598499727142128       1
3.1249999999999996        0.35                     0.3088648992842773       1
3.1750000000000003        0.35                     0.3014784866055573       1
3.225                     0.35                     0.2940920739268367       1
3.275                     0.35                     0.30391473535898705      1
3.3249999999999997        0.35                     0.2785079028030397       1
3.3750000000000004        0.35                     0.2510528454118204       1
3.4250000000000003        0.35                     0.24560453398052617      1
3.475                     0.35                     0.2599668133748516       1