% Model:              nc_magnet_1.mph
% Version:            COMSOL 6.2.0.415
% Date:               Feb 3 2025, 10:40
% Dimension:          2
% Nodes:              3000
% Expressions:        2
% Description:        Point
% cpl5x                   cpl5y                    Magnetic flux density, x-component Radius
-0.475                    0.05                     1.322645457803029E-4     1
-0.425                    0.05                     1.808663119600368E-4     1
-0.375                    0.05                     1.808663119600368E-4     1
-0.32499999999999996      0.05                     1.9303516440988266E-4    1
-0.275                    0.05                     1.54474295901319E-4      1
-0.22499999999999998      0.05                     2.4400398113821886E-4    1
-0.17500000000000004      0.05                     2.07146795091262E-4      1
-0.12500000000000006      0.05                     1.7982895834744994E-4    1
-0.07500000000000001      0.05                     1.2061987545883279E-4    1
-0.025000000000000022     0.05                     5.075099298301744E-5     1
0.024999999999999967      0.05                     0.0016735610630718156    1
0.07500000000000007       0.05                     0.001311545869718156     1
0.125                     0.05                     0.0010820767247849972    1
0.17500000000000004       0.05                     6.108658560091129E-4     1
0.22499999999999998       0.05                     2.8457347006671796E-4    1
0.275                     0.05                     3.4378239324572846E-4    1
0.32500000000000007       0.05                     -6.001877749060164E-4    1
0.375                     0.05                     3.834427897219661E-4     1
0.42500000000000004       0.05                     -3.9951111495617475E-4   1
0.4750000000000001        0.05                     -3.9951111495617475E-4   1
0.5249999999999999        0.05                     -0.0014557182053367423   1
0.575                     0.05                     -2.0621873268061863E-4   1
0.625                     0.05                     -8.396862219048895E-4    1
0.6749999999999998        0.05                     -4.823187230815762E-4    1
0.7250000000000001        0.05                     -1.249512242509354E-4    1
0.7749999999999999        0.05                     2.3241627456904723E-4    1
0.8250000000000002        0.05                     -8.820596634270816E-4    1
0.875                     0.05                     -0.0012985832503922268   1
0.9249999999999999        0.05                     -7.408620970313917E-4    1
0.9749999999999999        0.05                     -8.15176079730584E-4     1
1.025                     0.05                     -8.894900624298874E-4    1
1.075                     0.05                     -1.5582554657522785E-4   1
1.125                     0.05                     -1.6257656053331182E-4   1
1.175                     0.05                     -2.5606809699829647E-4   1
1.2249999999999996        0.05                     -6.142559564676908E-4    1
1.275                     0.05                     -6.14255956468579E-4     1
1.3250000000000002        0.05                     -6.142559564690231E-4    1
1.375                     0.05                     -6.14255956468579E-4     1
1.4249999999999998        0.05                     -2.298363891743982E-4    1
1.475                     0.05                     -1.249540330006127E-5    1
1.5250000000000004        0.05                     -2.924777860555672E-4    1
1.575                     0.05                     -2.92477786054679E-4     1
1.625                     0.05                     -5.404540849300865E-4    1
1.675                     0.05                     -7.197674217365169E-4    1
1.725                     0.05                     -7.197674217356287E-4    1
1.775                     0.05                     -7.197674217356287E-4    1
1.8250000000000002        0.05                     4.313708580561126E-6     1
1.8749999999999998        0.05                     -8.166143827001981E-4    1
1.925                     0.05                     -2.0169247671342205E-4   1
1.975                     0.05                     -4.016355648510661E-4    1
2.025                     0.05                     -4.016355648510661E-4    1
2.0749999999999997        0.05                     -4.016355648510661E-4    1
2.1250000000000004        0.05                     7.509996964216725E-5     1
2.1750000000000003        0.05                     7.50999696423893E-5      1
2.225                     0.05                     7.50999696423893E-5      1
2.275                     0.05                     -4.407575039646616E-4    1
2.3249999999999993        0.05                     -4.407575039646616E-4    1
2.375                     0.05                     -4.407575039646616E-4    1
2.425                     0.05                     -1.8415118610803916E-4   1
2.4749999999999996        0.05                     2.423197833443247E-4     1
2.5250000000000004        0.05                     2.4231978334476878E-4    1
2.575                     0.05                     2.4231978334476878E-4    1
2.625                     0.05                     -3.477532454472798E-4    1
2.675                     0.05                     -3.4775324544669695E-4   1
2.7249999999999996        0.05                     -3.477532454474741E-4    1
2.7750000000000004        0.05                     -3.477532454476129E-4    1
2.825                     0.05                     2.671239416408566E-4     1
2.875                     0.05                     -2.89431289608455E-4     1
2.9250000000000007        0.05                     3.541538926202792E-4     1
2.975                     0.05                     3.5415389262061225E-4    1
3.025                     0.05                     3.541538926207233E-4     1
3.0749999999999997        0.05                     5.0641222111624806E-5    1
3.1249999999999996        0.05                     5.064122211134725E-5     1
3.1750000000000003        0.05                     5.064122211155542E-5     1
3.225                     0.05                     3.9300280386311837E-4    1
3.275                     0.05                     1.6092506979292764E-4    1
3.3249999999999997        0.05                     1.609250697932052E-4     1
3.3750000000000004        0.05                     1.6092506979292764E-4    1
3.4250000000000003        0.05                     0.001315382721327918     1
3.475                     0.05                     4.4521197365743857E-4    1
3.525                     0.05                     9.397246169642326E-4     1
3.5749999999999993        0.05                     3.821815511253629E-4     1
3.625                     0.05                     3.821815511253629E-4     1
3.675                     0.05                     4.1774085356260926E-4    1
3.7249999999999996        0.05                     2.0308112806866063E-4    1
3.7750000000000004        0.05                     4.11893646528938E-4      1
3.825                     0.05                     2.581964382271096E-4     1
3.875                     0.05                     3.1519653488354393E-4    1
3.925                     0.05                     4.530720274775746E-4     1
3.9749999999999996        0.05                     4.3427422659636505E-4    1
4.0249999999999995        0.05                     1.1102722024425304E-5    1
4.074999999999999         0.05                     1.567811964164889E-5     1
4.125000000000001         0.05                     9.865731565916747E-6     1
4.175000000000001         0.05                     1.3815050303733756E-5    1
4.225                     0.05                     2.4646229150493415E-5    1
4.2749999999999995        0.05                     2.2464995631688023E-5    1
4.325                     0.05                     1.4255791022765862E-5    1
4.375                     0.05                     1.3536310967232623E-5    1
4.425                     0.05                     6.124249977168539E-5     1
4.475                     0.05                     1.968498069826463E-5     1
-0.475                    0.15000000000000002      3.967936373410197E-4     1
-0.425                    0.15000000000000002      5.234176775847921E-4     1
-0.375                    0.15000000000000002      4.912660288856063E-4     1
-0.32499999999999996      0.15000000000000002      5.590984162856527E-4     1
-0.275                    0.15000000000000002      6.368397989846425E-4     1
-0.22499999999999998      0.15000000000000002      6.996957879289445E-4     1
-0.17500000000000004      0.15000000000000002      7.366710920453379E-4     1
-0.12500000000000006      0.15000000000000002      7.085383002056744E-4     1
-0.07500000000000001      0.15000000000000002      5.450706258562921E-4     1
-0.025000000000000022     0.15000000000000002      2.2266603139409202E-4    1
0.024999999999999967      0.15000000000000002      0.004157005264632443     1
0.07500000000000007       0.15000000000000002      0.0037271458125376355    1
0.125                     0.15000000000000002      0.0028558738102271164    1
0.17500000000000004       0.15000000000000002      0.001606648778825992     1
0.22499999999999998       0.15000000000000002      0.0014912644581299705    1
0.275                     0.15000000000000002      6.957275547694874E-4     1
0.32500000000000007       0.15000000000000002      3.486263185881189E-4     1
0.375                     0.15000000000000002      -1.0595542458835538E-4   1
0.42500000000000004       0.15000000000000002      -0.001525530576027112    1
0.4750000000000001        0.15000000000000002      -0.0023937676455167978   1
0.5249999999999999        0.15000000000000002      -0.0010846519996992043   1
0.575                     0.15000000000000002      -0.0014986797266960394   1
0.625                     0.15000000000000002      -0.0015397202737548188   1
0.6749999999999998        0.15000000000000002      -0.0016954807974169928   1
0.7250000000000001        0.15000000000000002      -0.0015837962010283313   1
0.7749999999999999        0.15000000000000002      -0.002186953727978558    1
0.8250000000000002        0.15000000000000002      -0.0021081528504368063   1
0.875                     0.15000000000000002      -0.0017380319075790407   1
0.9249999999999999        0.15000000000000002      -0.0015657937444866765   1
0.9749999999999999        0.15000000000000002      -0.0017557063274384888   1
1.025                     0.15000000000000002      -0.0018884903990608048   1
1.075                     0.15000000000000002      -0.002021274470692447    1
1.125                     0.15000000000000002      -0.0017578761747545357   1
1.175                     0.15000000000000002      -0.0019149371263225134   1
1.2249999999999996        0.15000000000000002      -0.002020110110734663    1
1.275                     0.15000000000000002      -0.002342055107897867    1
1.3250000000000002        0.15000000000000002      -0.001664092596659339    1
1.375                     0.15000000000000002      -0.0018166150100977774   1
1.4249999999999998        0.15000000000000002      -0.0015347573046975427   1
1.475                     0.15000000000000002      -4.346411144853235E-4    1
1.5250000000000004        0.15000000000000002      -5.808269867557669E-4    1
1.575                     0.15000000000000002      -0.001688675796622574    1
1.625                     0.15000000000000002      -0.001588291476121828    1
1.675                     0.15000000000000002      -0.0012960442368081804   1
1.725                     0.15000000000000002      -0.0049974774719228066   1
1.775                     0.15000000000000002      -0.001251218100353002    1
1.8250000000000002        0.15000000000000002      -0.0011813293352704868   1
1.8749999999999998        0.15000000000000002      -0.0010060076865147094   1
1.925                     0.15000000000000002      -0.001024036007691631    1
1.975                     0.15000000000000002      -0.0010420643288662768   1
2.025                     0.15000000000000002      -0.0010600926500431984   1
2.0749999999999997        0.15000000000000002      -0.0012049066945536424   1
2.1250000000000004        0.15000000000000002      2.2529990892605767E-4    1
2.1750000000000003        0.15000000000000002      2.2529990892650176E-4    1
2.225                     0.15000000000000002      -0.0013222725118939849   1
2.275                     0.15000000000000002      -5.024779167389637E-4    1
2.3249999999999993        0.15000000000000002      -4.4867990040131644E-4   1
2.375                     0.15000000000000002      -3.9488188406267E-4      1
2.425                     0.15000000000000002      -3.410838677238015E-4    1
2.4749999999999996        0.15000000000000002      -2.872858513863763E-4    1
2.5250000000000004        0.15000000000000002      7.269593500329741E-4     1
2.575                     0.15000000000000002      7.2695935003253E-4       1
2.625                     0.15000000000000002      -0.0010432597363410068   1
2.675                     0.15000000000000002      -1.2107102067451803E-4   1
2.7249999999999996        0.15000000000000002      7.750829877362087E-7     1
2.7750000000000004        0.15000000000000002      1.2262118665085087E-4    1
2.825                     0.15000000000000002      2.444672903138545E-4     1
2.875                     0.15000000000000002      -1.3739600348583458E-4   1
2.9250000000000007        0.15000000000000002      3.9858659831515375E-4    1
2.975                     0.15000000000000002      9.345692001168082E-4     1
3.025                     0.15000000000000002      0.0014705518019173525    1
3.0749999999999997        0.15000000000000002      1.5192366633504095E-4    1
3.1249999999999996        0.15000000000000002      1.5192366633420828E-4    1
3.1750000000000003        0.15000000000000002      5.909939123902308E-4     1
3.225                     0.15000000000000002      6.304400394305798E-4     1
3.275                     0.15000000000000002      7.61978818948239E-4      1
3.3249999999999997        0.15000000000000002      8.584079838052094E-4     1
3.3750000000000004        0.15000000000000002      7.676865593810034E-4     1
3.4250000000000003        0.15000000000000002      9.141843852375209E-4     1
3.475                     0.15000000000000002      0.0010606822110951764    1
3.525                     0.15000000000000002      0.0011465446533763801    1
3.5749999999999993        0.15000000000000002      0.0011465446533763801    1
3.625                     0.15000000000000002      9.648601177052463E-4     1
3.675                     0.15000000000000002      0.0010755162299229681    1
3.7249999999999996        0.15000000000000002      0.0011861723421395798    1
3.7750000000000004        0.15000000000000002      0.001269197031604108     1
3.825                     0.15000000000000002      0.0011566013088186722    1
3.875                     0.15000000000000002      0.0011450366020753222    1
3.925                     0.15000000000000002      0.0011976697848554707    1
3.9749999999999996        0.15000000000000002      0.0012353531606965618    1
4.0249999999999995        0.15000000000000002      8.009681252474365E-6     1
4.074999999999999         0.15000000000000002      1.2891572930717743E-5    1
4.125000000000001         0.15000000000000002      3.247703087216891E-5     1
4.175000000000001         0.15000000000000002      4.307046079699006E-5     1
4.225                     0.15000000000000002      6.0613271296861004E-5    1
4.2749999999999995        0.15000000000000002      1.2962224478973994E-4    1
4.325                     0.15000000000000002      1.1652712282250732E-4    1
4.375                     0.15000000000000002      1.034320008557188E-4     1
4.425                     0.15000000000000002      6.312971929361977E-5     1
4.475                     0.15000000000000002      5.9054942094904916E-5    1
-0.475                    0.25                     8.058484107247056E-4     1
-0.425                    0.25                     7.825815895921018E-4     1
-0.375                    0.25                     8.499710451806974E-4     1
-0.32499999999999996      0.25                     9.362213062455993E-4     1
-0.275                    0.25                     0.0010224715673109452    1
-0.22499999999999998      0.25                     0.0013003722110642713    1
-0.17500000000000004      0.25                     0.0015555622260953195    1
-0.12500000000000006      0.25                     0.001739932098755767     1
-0.07500000000000001      0.25                     0.0018279298552190681    1
-0.025000000000000022     0.25                     0.0011725244445353056    1
0.024999999999999967      0.25                     0.008770778788196765     1
0.07500000000000007       0.25                     0.005983465947042355     1
0.125                     0.25                     0.0044155281107691735    1
0.17500000000000004       0.25                     0.003188861445509339     1
0.22499999999999998       0.25                     0.002294203909131376     1
0.275                     0.25                     0.0013297121526325006    1
0.32500000000000007       0.25                     4.304045911096427E-4     1
0.375                     0.25                     -5.387634923075257E-4    1
0.42500000000000004       0.25                     -0.0010565186854023523   1
0.4750000000000001        0.25                     -0.0019786896968261303   1
0.5249999999999999        0.25                     -0.0019322508263273086   1
0.575                     0.25                     -0.0023223544497310705   1
0.625                     0.25                     -0.002892781574350245    1
0.6749999999999998        0.25                     -0.0030852123390778807   1
0.7250000000000001        0.25                     -0.0028400685793099623   1
0.7749999999999999        0.25                     -0.003680731273375315    1
0.8250000000000002        0.25                     -0.0038505622919089433   1
0.875                     0.25                     -0.0033480533386062716   1
0.9249999999999999        0.25                     -0.002806618970656344    1
0.9749999999999999        0.25                     -0.002907818697382325    1
1.025                     0.25                     -0.0028423198668376948   1
1.075                     0.25                     -0.003130740591720471    1
1.125                     0.25                     -0.003067510900529591    1
1.175                     0.25                     -0.003187296239840265    1
1.2249999999999996        0.25                     -0.0032903597836133613   1
1.275                     0.25                     -0.003287700475663957    1
1.3250000000000002        0.25                     -0.0032418970579781714   1
1.375                     0.25                     -0.002810037603427906    1
1.4249999999999998        0.25                     -0.002694835159124498    1
1.475                     0.25                     -0.002705817577890457    1
1.5250000000000004        0.25                     -0.0021517629435940933   1
1.575                     0.25                     -0.0023509907074323877   1
1.625                     0.25                     -0.0034747470017499893   1
1.675                     0.25                     -0.0024918168659326945   1
1.725                     0.25                     -0.0028242927855215427   1
1.775                     0.25                     -0.0016924782176193087   1
1.8250000000000002        0.25                     -0.0016397178784846034   1
1.8749999999999998        0.25                     -0.0023771478447809358   1
1.925                     0.25                     -0.0018991162746404555   1
1.975                     0.25                     -0.0018922800094052228   1
2.025                     0.25                     -0.0018854437441628846   1
2.0749999999999997        0.25                     -0.001878607478922767    1
2.1250000000000004        0.25                     -0.0011297293471010939   1
2.1750000000000003        0.25                     -7.132343874571567E-4    1
2.225                     0.25                     -6.426494398958926E-4    1
2.275                     0.25                     -5.720644923381535E-4    1
2.3249999999999993        0.25                     -5.014795447726428E-4    1
2.375                     0.25                     -4.308945972137934E-4    1
2.425                     0.25                     -3.6030964965583223E-4   1
2.4749999999999996        0.25                     -2.897247020907656E-4    1
2.5250000000000004        0.25                     -3.4558346483137825E-4   1
2.575                     0.25                     6.033280566717369E-4     1
2.625                     0.25                     -4.061025451944644E-4    1
2.675                     0.25                     -2.714115501420977E-4    1
2.7249999999999996        0.25                     -1.3672055509539316E-4   1
2.7750000000000004        0.25                     -2.0295600446917916E-6   1
2.825                     0.25                     1.3266143500434424E-4    1
2.875                     0.25                     3.6268563883701255E-4    1
2.9250000000000007        0.25                     7.036805607849583E-4     1
2.975                     0.25                     9.274901349531628E-4     1
3.025                     0.25                     -0.001776171326755338    1
3.0749999999999997        0.25                     7.113558014410631E-5     1
3.1249999999999996        0.25                     1.699578015036951E-4     1
3.1750000000000003        0.25                     4.974750496820057E-4     1
3.225                     0.25                     7.82697047003289E-4      1
3.275                     0.25                     9.580562448037178E-4     1
3.3249999999999997        0.25                     9.008248737158997E-4     1
3.3750000000000004        0.25                     9.68344275767391E-4      1
3.4250000000000003        0.25                     0.0010358636778202701    1
3.475                     0.25                     0.0011033830798687916    1
3.525                     0.25                     0.0016573059104615095    1
3.5749999999999993        0.25                     0.001689236579951181     1
3.625                     0.25                     0.0014948539872419175    1
3.675                     0.25                     0.001339947886380699     1
3.7249999999999996        0.25                     0.0015583746183036595    1
3.7750000000000004        0.25                     0.0019167503888812831    1
3.825                     0.25                     0.0019954627517977386    1
3.875                     0.25                     0.0020002842299851054    1
3.925                     0.25                     0.002084379940159309     1
3.9749999999999996        0.25                     0.0021051976166313047    1
4.0249999999999995        0.25                     1.5353213785651576E-5    1
4.074999999999999         0.25                     3.587591562892456E-5     1
4.125000000000001         0.25                     8.42229913104453E-5      1
4.175000000000001         0.25                     7.795212735284274E-5     1
4.225                     0.25                     9.155011255002066E-5     1
4.2749999999999995        0.25                     1.0514809774342382E-4    1
4.325                     0.25                     1.2402133743516508E-4    1
4.375                     0.25                     1.1426150601970275E-4    1
4.425                     0.25                     1.0450167460340776E-4    1
4.475                     0.25                     1.3662177637535633E-4    1
-0.475                    0.35                     9.113310760139326E-4     1
-0.425                    0.35                     9.737135188363361E-4     1
-0.375                    0.35                     0.0010622122406431789    1
-0.32499999999999996      0.35                     0.0012749854504539582    1
-0.275                    0.35                     0.0014289455656957273    1
-0.22499999999999998      0.35                     0.0018232750375061797    1
-0.17500000000000004      0.35                     0.002408912672312802     1
-0.12500000000000006      0.35                     0.002968439887325758     1
-0.07500000000000001      0.35                     0.004323197369606291     1
-0.025000000000000022     0.35                     0.006745293607806957     1
0.024999999999999967      0.35                     0.008503837860598384     1
0.07500000000000007       0.35                     0.008882377089800109     1
0.125                     0.35                     0.008798412514121168     1
0.17500000000000004       0.35                     0.008740976253964305     1
0.22499999999999998       0.35                     0.008677980929233442     1
0.275                     0.35                     0.008612904387858222     1
0.32500000000000007       0.35                     3.161145814887245E-4     1
0.375                     0.35                     -4.4426683189868754E-4   1
0.42500000000000004       0.35                     -0.001331579100395608    1
0.4750000000000001        0.35                     -0.0021185264293781536   1
0.5249999999999999        0.35                     -0.0025142095300312306   1
0.575                     0.35                     -0.003052305216293405    1
0.625                     0.35                     -0.00341209857475544     1
0.6749999999999998        0.35                     -0.0037918615766621144   1
0.7250000000000001        0.35                     -0.004151283012147067    1
0.7749999999999999        0.35                     -0.004170164045157243    1
0.8250000000000002        0.35                     -0.004351689995388819    1
0.875                     0.35                     -0.004604722728934085    1
0.9249999999999999        0.35                     -0.004526604782089216    1
0.9749999999999999        0.35                     -0.004379292229944376    1
1.025                     0.35                     -0.004368470503181676    1
1.075                     0.35                     -0.00472393625134071     1
1.125                     0.35                     -0.004616113843923575    1
1.175                     0.35                     -0.004604349059688095    1
1.2249999999999996        0.35                     -0.004456112010102833    1
1.275                     0.35                     -0.004375528534138695    1
1.3250000000000002        0.35                     -0.004329077975145146    1
1.375                     0.35                     -0.0042372493671791744   1
1.4249999999999998        0.35                     -0.003949108908294682    1
1.475                     0.35                     -0.003610007534185073    1
1.5250000000000004        0.35                     -0.003666204374736831    1
1.575                     0.35                     -0.0032906199107465284   1
1.625                     0.35                     -0.003454343098854954    1
1.675                     0.35                     -0.003197768268712764    1
1.725                     0.35                     -0.003115274571651838    1
1.775                     0.35                     -0.0030405626423331      1
1.8250000000000002        0.35                     -0.00269920666504031     1
1.8749999999999998        0.35                     -0.0028086505188325006   1
1.925                     0.35                     -0.0020348241840268955   1
1.975                     0.35                     -0.002139083027746125    1
2.025                     0.35                     -0.0019831919421973154   1
2.0749999999999997        0.35                     -0.0019011532216683946   1
2.1250000000000004        0.35                     -0.0020583148736595946   1
2.1750000000000003        0.35                     -0.0018829826571602482   1
2.225                     0.35                     -0.001188282690268938    1
2.275                     0.35                     -0.0013853156335796868   1
2.3249999999999993        0.35                     -0.0011821913235748327   1
2.375                     0.35                     -9.79067013576751E-4     1
2.425                     0.35                     -7.811606581997477E-4    1
2.4749999999999996        0.35                     -6.85993178649702E-4     1
2.5250000000000004        0.35                     -5.636236998525224E-4    1
2.575                     0.35                     -4.3916217115658185E-4   1
2.625                     0.35                     -3.986219277288261E-4    1
2.675                     0.35                     -4.919133663157105E-4    1
2.7249999999999996        0.35                     -2.3722092995592803E-4   1
2.7750000000000004        0.35                     -9.877481640252483E-5    1
2.825                     0.35                     5.126639794017507E-6     1
2.875                     0.35                     2.8047250289375825E-5    1
2.9250000000000007        0.35                     4.501426040168788E-4     1
2.975                     0.35                     -6.046185989019293E-4    1
3.025                     0.35                     4.654535883944558E-4     1
3.0749999999999997        0.35                     0.0011351753078173432    1
3.1249999999999996        0.35                     7.360849080431109E-4     1
3.1750000000000003        0.35                     0.0010584503085202535    1
3.225                     0.35                     0.0013808157089885142    1
3.275                     0.35                     0.0014212404930589173    1
3.3249999999999997        0.35                     0.0012674245561800357    1
3.3750000000000004        0.35                     0.0013192029180251197    1
3.4250000000000003        0.35                     0.0012691753854237042    1
3.475                     0.35                     0.001708993192642616     1