% Model:              nc_magnet_1.mph
% Version:            COMSOL 6.2.0.415
% Date:               Feb 3 2025, 10:41
% Dimension:          2
% Nodes:              3000
% Expressions:        2
% Description:        Point
% cpl7x                   cpl7y                    Magnetic flux density, y-component Radius
-0.475                    0.05                     -0.003268478421518589    1
-0.425                    0.05                     -0.0033022845344660157   1
-0.37499999999999994      0.05                     -0.003384280779657245    1
-0.32499999999999996      0.05                     -0.0034922005123873556   1
-0.2749999999999999       0.05                     -0.0036193655567466343   1
-0.22499999999999992      0.05                     -0.003893603630622966    1
-0.17499999999999993      0.05                     -0.0041833823757624344   1
-0.12499999999999994      0.05                     -0.004768666471436589    1
-0.0749999999999999       0.05                     -0.005619873833260569    1
-0.02499999999999991      0.05                     -0.0014257950561642474   1
0.025000000000000078      0.05                     1.8331351594340575       1
0.07500000000000007       0.05                     1.8317619703893808       1
0.1250000000000001        0.05                     1.8300546989764648       1
0.17500000000000016       0.05                     1.8283509729663185       1
0.2250000000000001        0.05                     1.8253637061423398       1
0.27500000000000013       0.05                     1.8232884339780715       1
0.3250000000000002        0.05                     1.8206719700175085       1
0.3750000000000001        0.05                     1.8174525491103235       1
0.42500000000000016       0.05                     1.8127074919293382       1
0.4750000000000002        0.05                     1.8092658707554965       1
0.5250000000000001        0.05                     1.8057835924219223       1
0.5750000000000002        0.05                     1.8023013140883437       1
0.6250000000000002        0.05                     1.7974239822165203       1
0.675                     0.05                     1.7970735656087822       1
0.7250000000000003        0.05                     1.7909121832377506       1
0.7750000000000001        0.05                     1.7872442847266043       1
0.8250000000000004        0.05                     1.7835763862154632       1
0.8750000000000002        0.05                     1.7772092858590136       1
0.9250000000000002        0.05                     1.7751884829402254       1
0.9750000000000001        0.05                     1.7715852538112569       1
1.0250000000000004        0.05                     1.7679820246822868       1
1.0750000000000002        0.05                     1.7643787955533208       1
1.1250000000000004        0.05                     1.76055896084699         1
1.1750000000000003        0.05                     1.757965022736629        1
1.225                     0.05                     1.7582031391625481       1
1.2750000000000001        0.05                     1.754186629466001        1
1.3250000000000002        0.05                     1.748958656988019        1
1.3750000000000004        0.05                     1.746388447770292        1
1.4250000000000003        0.05                     1.7432860189171355       1
1.4750000000000005        0.05                     1.741690809012602        1
1.5250000000000004        0.05                     1.7400955991080718       1
1.5750000000000004        0.05                     1.7395513218766991       1
1.6250000000000004        0.05                     1.736460582325555        1
1.6750000000000005        0.05                     1.7380173998585846       1
1.7250000000000005        0.05                     1.7303913174357684       1
1.7750000000000004        0.05                     1.7282364521758353       1
1.8250000000000006        0.05                     1.7260815869159027       1
1.8750000000000002        0.05                     1.7246406415025675       1
1.9250000000000005        0.05                     1.723580110761814        1
1.9750000000000005        0.05                     1.7226441674372979       1
2.0250000000000004        0.05                     1.7217082241127803       1
2.075                     0.05                     1.720772280788263        1
2.125000000000001         0.05                     1.7182124369844627       1
2.1750000000000007        0.05                     1.716577882540257        1
2.2250000000000005        0.05                     1.7154733285693686       1
2.2750000000000004        0.05                     1.714368774598478        1
2.325                     0.05                     1.7132642206275863       1
2.3750000000000004        0.05                     1.7121596666566967       1
2.4250000000000003        0.05                     1.7110551126858085       1
2.475                     0.05                     1.711167782497104        1
2.5250000000000004        0.05                     1.7090872494248834       1
2.5750000000000006        0.05                     1.70756238426814         1
2.6250000000000004        0.05                     1.7066154768042656       1
2.6750000000000007        0.05                     1.7056685693403881       1
2.7250000000000005        0.05                     1.7047216618765124       1
2.775000000000001         0.05                     1.7037747544126354       1
2.8250000000000006        0.05                     1.7028278469487592       1
2.875000000000001         0.05                     1.7031044648572298       1
2.9250000000000007        0.05                     1.7093797783180222       1
2.9750000000000005        0.05                     1.701202884128872        1
3.0250000000000004        0.05                     1.700436972029281        1
3.0750000000000006        0.05                     1.6996710599296894       1
3.1250000000000004        0.05                     1.698905147830097        1
3.1750000000000007        0.05                     1.698139235730507        1
3.2250000000000005        0.05                     1.6982884623565613       1
3.275000000000001         0.05                     1.6976910711055275       1
3.3250000000000006        0.05                     1.69734560008693         1
3.375000000000001         0.05                     1.6970001290683319       1
3.4250000000000007        0.05                     1.6966546580497375       1
3.475000000000001         0.05                     1.696280797035348        1
3.525000000000001         0.05                     1.6958204932030028       1
3.575                     0.05                     1.6956211973240571       1
3.6250000000000004        0.05                     1.6953855402487363       1
3.6750000000000007        0.05                     1.6953033725385023       1
3.7250000000000005        0.05                     1.6950023431231136       1
3.7750000000000004        0.05                     1.695073995366835        1
3.8250000000000006        0.05                     1.695558638602686        1
3.875000000000001         0.05                     1.6951503218971944       1
3.9250000000000007        0.05                     1.6952268018042875       1
3.9750000000000005        0.05                     1.695365086345365        1
4.025                     0.05                     -0.005754396026488973    1
4.075000000000001         0.05                     -0.00952397955572365     1
4.125000000000002         0.05                     -0.008205340517006388    1
4.175000000000002         0.05                     -0.007519529296041522    1
4.2250000000000005        0.05                     -0.00699806378870256     1
4.275                     0.05                     -0.0066314409672387775   1
4.325000000000001         0.05                     -0.006440082378732524    1
4.375000000000001         0.05                     -0.006304472205029943    1
4.425000000000001         0.05                     -0.006151969678919511    1
4.4750000000000005        0.05                     -0.006094731791973729    1
-0.475                    0.15000000000000002      -0.0031456268143920385   1
-0.425                    0.15000000000000002      -0.003253546547121955    1
-0.37499999999999994      0.15000000000000002      -0.003361466279851677    1
-0.32499999999999996      0.15000000000000002      -0.0034771150084720853   1
-0.2749999999999999       0.15000000000000002      -0.0034963986586951865   1
-0.22499999999999992      0.15000000000000002      -0.0037795551590719123   1
-0.17499999999999993      0.15000000000000002      -0.004130490151666777    1
-0.12499999999999994      0.15000000000000002      -0.0046019100080476605   1
-0.0749999999999999       0.15000000000000002      -0.0055132485131896836   1
-0.02499999999999991      0.15000000000000002      -0.0013271816665634262   1
0.025000000000000078      0.15000000000000002      1.8337043415174863       1
0.07500000000000007       0.15000000000000002      1.8327783790258714       1
0.1250000000000001        0.15000000000000002      1.8314932545655296       1
0.17500000000000016       0.15000000000000002      1.82917639906232         1
0.2250000000000001        0.15000000000000002      1.8257201834622125       1
0.27500000000000013       0.15000000000000002      1.822958677136416        1
0.3250000000000002        0.15000000000000002      1.8198555245889443       1
0.3750000000000001        0.15000000000000002      1.8162856308013329       1
0.42500000000000016       0.15000000000000002      1.8132268525978876       1
0.4750000000000002        0.15000000000000002      1.809453788870309        1
0.5250000000000001        0.15000000000000002      1.8056807251427234       1
0.5750000000000002        0.15000000000000002      1.8015844021136456       1
0.6250000000000002        0.15000000000000002      1.7984279017195863       1
0.675                     0.15000000000000002      1.79434867578468         1
0.7250000000000003        0.15000000000000002      1.7902365125932924       1
0.7750000000000001        0.15000000000000002      1.7866485076136014       1
0.8250000000000004        0.15000000000000002      1.7832075831423109       1
0.8750000000000002        0.15000000000000002      1.7798968021516677       1
0.9250000000000002        0.15000000000000002      1.7762699686892935       1
0.9750000000000001        0.15000000000000002      1.772455415293928        1
1.0250000000000004        0.15000000000000002      1.7694572154203412       1
1.0750000000000002        0.15000000000000002      1.7658539862913691       1
1.1250000000000004        0.15000000000000002      1.7628731158899704       1
1.1750000000000003        0.15000000000000002      1.7592151292787568       1
1.225                     0.15000000000000002      1.7571610298726617       1
1.2750000000000001        0.15000000000000002      1.7540880728145285       1
1.3250000000000002        0.15000000000000002      1.7510151157563965       1
1.3750000000000004        0.15000000000000002      1.7484697918345318       1
1.4250000000000003        0.15000000000000002      1.745703474227761        1
1.4750000000000005        0.15000000000000002      1.7432680684106034       1
1.5250000000000004        0.15000000000000002      1.7410093282407444       1
1.5750000000000004        0.15000000000000002      1.7387505880708822       1
1.6250000000000004        0.15000000000000002      1.7352895740069794       1
1.6750000000000005        0.15000000000000002      1.733092111239595        1
1.7250000000000005        0.15000000000000002      1.7308946484722056       1
1.7750000000000004        0.15000000000000002      1.730000581450862        1
1.8250000000000006        0.15000000000000002      1.7278457161909304       1
1.8750000000000002        0.15000000000000002      1.7268291471581465       1
1.9250000000000005        0.15000000000000002      1.7252728154788795       1
1.9750000000000005        0.15000000000000002      1.723716483799604        1
2.0250000000000004        0.15000000000000002      1.721816792692636        1
2.075                     0.15000000000000002      1.7205074240462035       1
2.125000000000001         0.15000000000000002      1.718320850174621        1
2.1750000000000007        0.15000000000000002      1.7176879918261474       1
2.2250000000000005        0.15000000000000002      1.715889950106881        1
2.2750000000000004        0.15000000000000002      1.714785396135992        1
2.325                     0.15000000000000002      1.7136808421651035       1
2.3750000000000004        0.15000000000000002      1.7125762881942088       1
2.4250000000000003        0.15000000000000002      1.7108040932974242       1
2.475                     0.15000000000000002      1.7093809755206497       1
2.5250000000000004        0.15000000000000002      1.708062397102864        1
2.5750000000000006        0.15000000000000002      1.70736870936623         1
2.6250000000000004        0.15000000000000002      1.706675021629589        1
2.6750000000000007        0.15000000000000002      1.7058791825501571       1
2.7250000000000005        0.15000000000000002      1.7051899048920656       1
2.775000000000001         0.15000000000000002      1.7042429974281894       1
2.8250000000000006        0.15000000000000002      1.7041302015298023       1
2.875000000000001         0.15000000000000002      1.702212014724315        1
2.9250000000000007        0.15000000000000002      1.7011680476085733       1
2.9750000000000005        0.15000000000000002      1.7011942767261208       1
3.0250000000000004        0.15000000000000002      1.699631246035306        1
3.0750000000000006        0.15000000000000002      1.698865333935715        1
3.1250000000000004        0.15000000000000002      1.6980994218361238       1
3.1750000000000007        0.15000000000000002      1.698073635100281        1
3.2250000000000005        0.15000000000000002      1.6986653554680684       1
3.275000000000001         0.15000000000000002      1.6974556258058258       1
3.3250000000000006        0.15000000000000002      1.6969757744368588       1
3.375000000000001         0.15000000000000002      1.696495923067887        1
3.4250000000000007        0.15000000000000002      1.6968477797684671       1
3.475000000000001         0.15000000000000002      1.6963485481384193       1
3.525000000000001         0.15000000000000002      1.6970090552449697       1
3.575                     0.15000000000000002      1.6961269401045718       1
3.6250000000000004        0.15000000000000002      1.6955986194675514       1
3.6750000000000007        0.15000000000000002      1.6952615534180815       1
3.7250000000000005        0.15000000000000002      1.6949244873686062       1
3.7750000000000004        0.15000000000000002      1.6950063435302243       1
3.8250000000000006        0.15000000000000002      1.6951201645326899       1
3.875000000000001         0.15000000000000002      1.6952585542584486       1
3.9250000000000007        0.15000000000000002      1.6954076349729672       1
3.9750000000000005        0.15000000000000002      1.6954279729063346       1
4.025                     0.15000000000000002      -0.005540956659823237    1
4.075000000000001         0.15000000000000002      -0.00951513126239556     1
4.125000000000002         0.15000000000000002      -0.008337614400197868    1
4.175000000000002         0.15000000000000002      -0.007515081641896959    1
4.2250000000000005        0.15000000000000002      -0.007033598650461936    1
4.275                     0.15000000000000002      -0.00650662010133507     1
4.325000000000001         0.15000000000000002      -0.006420002119522539    1
4.375000000000001         0.15000000000000002      -0.006255692058927953    1
4.425000000000001         0.15000000000000002      -0.00611885860194572     1
4.4750000000000005        0.15000000000000002      -0.006061976804702773    1
-0.475                    0.25                     -0.0031659172891647103   1
-0.425                    0.25                     -0.003098032298700648    1
-0.37499999999999994      0.25                     -0.0032259965819323444   1
-0.32499999999999996      0.25                     -0.0032707600489012556   1
-0.2749999999999999       0.25                     -0.0033155235158730534   1
-0.22499999999999992      0.25                     -0.003705367711188401    1
-0.17499999999999993      0.25                     -0.0037907281017906524   1
-0.12499999999999994      0.25                     -0.004429687757579237    1
-0.0749999999999999       0.25                     -0.0050508809370377605   1
-0.02499999999999991      0.25                     -0.0011595571870869764   1
0.025000000000000078      0.25                     1.8348902395242308       1
0.07500000000000007       0.25                     1.8338763483772622       1
0.1250000000000001        0.25                     1.8321936048172          1
0.17500000000000016       0.25                     1.8300134415753462       1
0.2250000000000001        0.25                     1.8277458392305768       1
0.27500000000000013       0.25                     1.8242299149337518       1
0.3250000000000002        0.25                     1.821050653935858        1
0.3750000000000001        0.25                     1.8175675865609566       1
0.42500000000000016       0.25                     1.814267323913458        1
0.4750000000000002        0.25                     1.8103826091743702       1
0.5250000000000001        0.25                     1.8061314706690013       1
0.5750000000000002        0.25                     1.8027048013457865       1
0.6250000000000002        0.25                     1.7989238530701526       1
0.675                     0.25                     1.7951666678030858       1
0.7250000000000003        0.25                     1.7911389554136896       1
0.7750000000000001        0.25                     1.7871423290973514       1
0.8250000000000004        0.25                     1.7820356741848329       1
0.8750000000000002        0.25                     1.7799361175520119       1
0.9250000000000002        0.25                     1.7768666352831919       1
0.9750000000000001        0.25                     1.7730520818878315       1
1.0250000000000004        0.25                     1.7692375284924573       1
1.0750000000000002        0.25                     1.765532763667771        1
1.1250000000000004        0.25                     1.7628796916649891       1
1.1750000000000003        0.25                     1.7594568252594538       1
1.225                     0.25                     1.7563566101535635       1
1.2750000000000001        0.25                     1.7538677847677704       1
1.3250000000000002        0.25                     1.7506884987860305       1
1.3750000000000004        0.25                     1.7485990433553584       1
1.4250000000000003        0.25                     1.7456294532712135       1
1.4750000000000005        0.25                     1.7431681007788313       1
1.5250000000000004        0.25                     1.7407324456639977       1
1.5750000000000004        0.25                     1.7381510145008683       1
1.6250000000000004        0.25                     1.7357399131987883       1
1.6750000000000005        0.25                     1.7338142456797643       1
1.7250000000000005        0.25                     1.7318885781607478       1
1.7750000000000004        0.25                     1.7312483335440358       1
1.8250000000000006        0.25                     1.7298064738518661       1
1.8750000000000002        0.25                     1.7268527276387609       1
1.9250000000000005        0.25                     1.72505334911135         1
1.9750000000000005        0.25                     1.7232539705839418       1
2.0250000000000004        0.25                     1.7224357837646407       1
2.075                     0.25                     1.71937540390516         1
2.125000000000001         0.25                     1.7181271940700917       1
2.1750000000000007        0.25                     1.7166762050571802       1
2.2250000000000005        0.25                     1.7156621199947373       1
2.2750000000000004        0.25                     1.7146164567899762       1
2.325                     0.25                     1.7132870430611948       1
2.3750000000000004        0.25                     1.7121600078786372       1
2.4250000000000003        0.25                     1.7107368901018594       1
2.475                     0.25                     1.7093137723250864       1
2.5250000000000004        0.25                     1.7074385850852458       1
2.5750000000000006        0.25                     1.7067448973486141       1
2.6250000000000004        0.25                     1.706051209611978        1
2.6750000000000007        0.25                     1.7053575218753438       1
2.7250000000000005        0.25                     1.7046638341387044       1
2.775000000000001         0.25                     1.7048036847046395       1
2.8250000000000006        0.25                     1.7030807644550214       1
2.875000000000001         0.25                     1.702036797339282        1
2.9250000000000007        0.25                     1.7009928302235409       1
2.9750000000000005        0.25                     1.7009246476552669       1
3.0250000000000004        0.25                     1.6999310511424666       1
3.0750000000000006        0.25                     1.6983915406999284       1
3.1250000000000004        0.25                     1.6985577498092324       1
3.1750000000000007        0.25                     1.6987239589185328       1
3.2250000000000005        0.25                     1.6991247830634404       1
3.275000000000001         0.25                     1.6988828500304018       1
3.3250000000000006        0.25                     1.6986409169973626       1
3.375000000000001         0.25                     1.6970029297139364       1
3.4250000000000007        0.25                     1.6965863874997797       1
3.475000000000001         0.25                     1.6969013517942724       1
3.525000000000001         0.25                     1.6961530780949856       1
3.575                     0.25                     1.6959418420292782       1
3.6250000000000004        0.25                     1.695591770056443        1
3.6750000000000007        0.25                     1.6963111093432826       1
3.7250000000000005        0.25                     1.6954634104501465       1
3.7750000000000004        0.25                     1.6954083494378827       1
3.8250000000000006        0.25                     1.6953532884255984       1
3.875000000000001         0.25                     1.6953142686750713       1
3.9250000000000007        0.25                     1.6953478401781714       1
3.9750000000000005        0.25                     1.6955068778827034       1
4.025                     0.25                     -0.005719860108744257    1
4.075000000000001         0.25                     -0.009639138116081192    1
4.125000000000002         0.25                     -0.008050687538611961    1
4.175000000000002         0.25                     -0.007551827310979586    1
4.2250000000000005        0.25                     -0.00699380551447093     1
4.275                     0.25                     -0.006604583895706062    1
4.325000000000001         0.25                     -0.006538640884052427    1
4.375000000000001         0.25                     -0.006151159311712359    1
4.425000000000001         0.25                     -0.006075639180148515    1
4.4750000000000005        0.25                     -0.006000119048585328    1
-0.475                    0.35                     -0.0028428186974505196   1
-0.425                    0.35                     -0.002881746620275516    1
-0.37499999999999994      0.35                     -0.003053645661997395    1
-0.32499999999999996      0.35                     -0.003087962802630795    1
-0.2749999999999999       0.35                     -0.0031127836273672216   1
-0.22499999999999992      0.35                     -0.003452538560182794    1
-0.17499999999999993      0.35                     -0.003723511812302238    1
-0.12499999999999994      0.35                     -0.00406074499884479     1
-0.0749999999999999       0.35                     -0.004690630188248335    1
-0.02499999999999991      0.35                     -0.005192802615424874    1
0.025000000000000078      0.35                     -0.0059679174883608965   1
0.07500000000000007       0.35                     -0.0054584798139569735   1
0.1250000000000001        0.35                     -0.002552695109443448    1
0.17500000000000016       0.35                     4.7691298865970566E-4    1
0.2250000000000001        0.35                     0.0034306519041749084    1
0.27500000000000013       0.35                     0.006230157966470529     1
0.3250000000000002        0.35                     1.821126252092732        1
0.3750000000000001        0.35                     1.8174420305944707       1
0.42500000000000016       0.35                     1.8138185101280087       1
0.4750000000000002        0.35                     1.8108294551776805       1
0.5250000000000001        0.35                     1.8066137968125577       1
0.5750000000000002        0.35                     1.8031305112384821       1
0.6250000000000002        0.35                     1.7985591774273075       1
0.675                     0.35                     1.7954489504848348       1
0.7250000000000003        0.35                     1.792104137867156        1
0.7750000000000001        0.35                     1.7881696785318262       1
0.8250000000000004        0.35                     1.7846315315197536       1
0.8750000000000002        0.35                     1.7807702109673045       1
0.9250000000000002        0.35                     1.7769744651713637       1
0.9750000000000001        0.35                     1.773324003712995        1
1.0250000000000004        0.35                     1.770153790004997        1
1.0750000000000002        0.35                     1.7672950606656812       1
1.1250000000000004        0.35                     1.7634413000938327       1
1.1750000000000003        0.35                     1.7601360211090293       1
1.225                     0.35                     1.757215699417257        1
1.2750000000000001        0.35                     1.7544904953947293       1
1.3250000000000002        0.35                     1.751792845360717        1
1.3750000000000004        0.35                     1.749182136362747        1
1.4250000000000003        0.35                     1.7463123368310478       1
1.4750000000000005        0.35                     1.7439757667770808       1
1.5250000000000004        0.35                     1.7411097765625345       1
1.5750000000000004        0.35                     1.7388946766421227       1
1.6250000000000004        0.35                     1.736732998021881        1
1.6750000000000005        0.35                     1.7349156596166937       1
1.7250000000000005        0.35                     1.733273135700517        1
1.7750000000000004        0.35                     1.7306032550922694       1
1.8250000000000006        0.35                     1.728636281720807        1
1.8750000000000002        0.35                     1.726956676966792        1
1.9250000000000005        0.35                     1.7254338480420388       1
1.9750000000000005        0.35                     1.7235401610714425       1
2.0250000000000004        0.35                     1.7218150836291954       1
2.075                     0.35                     1.7208355355005347       1
2.125000000000001         0.35                     1.7188075535788898       1
2.1750000000000007        0.35                     1.7175593437438252       1
2.2250000000000005        0.35                     1.7161494922239466       1
2.2750000000000004        0.35                     1.7149303805464695       1
2.325                     0.35                     1.7136734897542816       1
2.3750000000000004        0.35                     1.7125348867295576       1
2.4250000000000003        0.35                     1.711290496647278        1
2.475                     0.35                     1.7099658703227103       1
2.5250000000000004        0.35                     1.7088096071682024       1
2.5750000000000006        0.35                     1.7079738532308042       1
2.6250000000000004        0.35                     1.7071401516775737       1
2.6750000000000007        0.35                     1.706138578378754        1
2.7250000000000005        0.35                     1.7050198369565308       1
2.775000000000001         0.35                     1.7054777354098358       1
2.8250000000000006        0.35                     1.703316587393251        1
2.875000000000001         0.35                     1.7029181537862232       1
2.9250000000000007        0.35                     1.7015900892262894       1
2.9750000000000005        0.35                     1.7014232253551178       1
3.0250000000000004        0.35                     1.7001336175477446       1
3.0750000000000006        0.35                     1.6999010350243364       1
3.1250000000000004        0.35                     1.6992589932236624       1
3.1750000000000007        0.35                     1.6993505556297703       1
3.2250000000000005        0.35                     1.699261590919606        1
3.275000000000001         0.35                     1.6978291539633334       1
3.3250000000000006        0.35                     1.6974310994415458       1
3.375000000000001         0.35                     1.697033044919753        1
3.4250000000000007        0.35                     1.6966349903979676       1
3.475000000000001         0.35                     1.6963145850580996       1