% Model:              nc_magnet_1.mph
% Version:            COMSOL 6.2.0.415
% Date:               Feb 3 2025, 10:42
% Dimension:          2
% Nodes:              3000
% Expressions:        2
% Description:        Point
% cpl8x                   cpl8y                    Magnetic flux density, z-component Radius
-0.475                    0.05                     -2.656957308219132E-4    1
-0.425                    0.05                     -9.634868749396341E-4    1
-0.375                    0.05                     -0.0016612780190572198   1
-0.32499999999999996      0.05                     -0.002365104152355517    1
-0.275                    0.05                     -0.0031152266765799297   1
-0.22499999999999998      0.05                     -0.00394461684513181     1
-0.17500000000000004      0.05                     -0.004731851978343388    1
-0.12500000000000006      0.05                     -0.0055187334438857455   1
-0.07500000000000001      0.05                     -0.006092612724771573    1
-0.025000000000000022     0.05                     -0.005292605800094385    1
0.024999999999999967      0.05                     -0.034642006431346545    1
0.07500000000000007       0.05                     -0.08527976041948815     1
0.125                     0.05                     -0.14254642947806184     1
0.17500000000000004       0.05                     -0.19987978764929543     1
0.22499999999999998       0.05                     -0.24569481764044587     1
0.275                     0.05                     -0.2851797348153875      1
0.32500000000000007       0.05                     -0.31200368622911356     1
0.375                     0.05                     -0.3307829447839209      1
0.42500000000000004       0.05                     -0.36559974494963665     1
0.4750000000000001        0.05                     -0.38072920785595044     1
0.5249999999999999        0.05                     -0.39704968191459555     1
0.575                     0.05                     -0.4172609634808273      1
0.625                     0.05                     -0.42055373446227184     1
0.6749999999999998        0.05                     -0.4238465054437194      1
0.7250000000000001        0.05                     -0.4225890037697726      1
0.7749999999999999        0.05                     -0.4190527096434744      1
0.8250000000000002        0.05                     -0.4296372790701799      1
0.875                     0.05                     -0.4412422184118765      1
0.9249999999999999        0.05                     -0.44228846322667836     1
0.9749999999999999        0.05                     -0.443334708041481       1
1.025                     0.05                     -0.4177412413704671      1
1.075                     0.05                     -0.4372630081499629      1
1.125                     0.05                     -0.4072396402740206      1
1.175                     0.05                     -0.43759291306100234     1
1.2249999999999996        0.05                     -0.43499277459308683     1
1.275                     0.05                     -0.43239263612517087     1
1.3250000000000002        0.05                     -0.429792497657254       1
1.375                     0.05                     -0.39575786599437723     1
1.4249999999999998        0.05                     -0.3879702620297929      1
1.475                     0.05                     -0.3530821628222363      1
1.5250000000000004        0.05                     -0.35817827539440017     1
1.575                     0.05                     -0.3527825395711802      1
1.625                     0.05                     -0.3473868037479567      1
1.675                     0.05                     -0.34199106792473744     1
1.725                     0.05                     -0.336595332101517       1
1.775                     0.05                     -0.31747833534080083     1
1.8250000000000002        0.05                     -0.3121016299862177      1
1.8749999999999998        0.05                     -0.3037134924447845      1
1.925                     0.05                     -0.2939862606026582      1
1.975                     0.05                     -0.26668809087380807     1
2.025                     0.05                     -0.25940151121901867     1
2.0749999999999997        0.05                     -0.25211493156423037     1
2.1250000000000004        0.05                     -0.2448283519094412      1
2.1750000000000003        0.05                     -0.23550967228774763     1
2.225                     0.05                     -0.2303701919711667      1
2.275                     0.05                     -0.22714953306716612     1
2.3249999999999993        0.05                     -0.2170155660572945      1
2.375                     0.05                     -0.2090846923098313      1
2.425                     0.05                     -0.2011538185623638      1
2.4749999999999996        0.05                     -0.19322294481490032     1
2.5250000000000004        0.05                     -0.18529207106743417     1
2.575                     0.05                     -0.17736119731996913     1
2.625                     0.05                     -0.16808716099761467     1
2.675                     0.05                     -0.16024121871907276     1
2.7249999999999996        0.05                     -0.15581973724621723     1
2.7750000000000004        0.05                     -0.15021301037844959     1
2.825                     0.05                     -0.1428694419370091      1
2.875                     0.05                     -0.13552587349556844     1
2.9250000000000007        0.05                     -0.12818230505412664     1
2.975                     0.05                     -0.12083873661268663     1
3.025                     0.05                     -0.11349516817124572     1
3.0749999999999997        0.05                     -0.10656388517628751     1
3.1249999999999996        0.05                     -0.10088555365938018     1
3.1750000000000003        0.05                     -0.09367775163330394     1
3.225                     0.05                     -0.08649586382001866     1
3.275                     0.05                     -0.07920097204162144     1
3.3249999999999997        0.05                     -0.07190608026322531     1
3.3750000000000004        0.05                     -0.06692331278077665     1
3.4250000000000003        0.05                     -0.06176162886638499     1
3.475                     0.05                     -0.05501179807341336     1
3.525                     0.05                     -0.04892460404790461     1
3.5749999999999993        0.05                     -0.044511374452956165    1
3.625                     0.05                     -0.03583981745409437     1
3.675                     0.05                     -0.027815181703443104    1
3.7249999999999996        0.05                     -0.02293758965813869     1
3.7750000000000004        0.05                     -0.01747072363336502     1
3.825                     0.05                     -0.011875539782174815    1
3.875                     0.05                     -0.006076746121599114    1
3.925                     0.05                     -2.4309226717811327E-4   1
3.9749999999999996        0.05                     0.005596663044668659     1
4.0249999999999995        0.05                     0.008105164294387512     1
4.074999999999999         0.05                     0.007070497646073204     1
4.125000000000001         0.05                     0.006095744926951169     1
4.175000000000001         0.05                     0.004969999506449829     1
4.225                     0.05                     0.0038897067301828514    1
4.2749999999999995        0.05                     0.003291119878158666     1
4.325                     0.05                     0.0024660589452855097    1
4.375                     0.05                     0.0016409980124107437    1
4.425                     0.05                     0.001111691168982909     1
4.475                     0.05                     3.347817860251956E-4     1
-0.475                    0.15000000000000002      -2.9843356708208514E-4   1
-0.425                    0.15000000000000002      -8.95300701246278E-4     1
-0.375                    0.15000000000000002      -0.001492167835410417    1
-0.32499999999999996      0.15000000000000002      -0.0021850073035535756   1
-0.275                    0.15000000000000002      -0.002944550548390046    1
-0.22499999999999998      0.15000000000000002      -0.003862536884813139    1
-0.17500000000000004      0.15000000000000002      -0.004666041842111057    1
-0.12500000000000006      0.15000000000000002      -0.005446211832346948    1
-0.07500000000000001      0.15000000000000002      -0.00621186691457859     1
-0.025000000000000022     0.15000000000000002      -0.005634156099921128    1
0.024999999999999967      0.15000000000000002      -0.04206818069866758     1
0.07500000000000007       0.15000000000000002      -0.09411240161241691     1
0.125                     0.15000000000000002      -0.14394821502154104     1
0.17500000000000004       0.15000000000000002      -0.20535750822070398     1
0.22499999999999998       0.15000000000000002      -0.25027462196092465     1
0.275                     0.15000000000000002      -0.2603029020060146      1
0.32500000000000007       0.15000000000000002      -0.3065801497172722      1
0.375                     0.15000000000000002      -0.3451555084228115      1
0.42500000000000004       0.15000000000000002      -0.35824392400841454     1
0.4750000000000001        0.15000000000000002      -0.40007808616058194     1
0.5249999999999999        0.15000000000000002      -0.39065539430941776     1
0.575                     0.15000000000000002      -0.411644197687135       1
0.625                     0.15000000000000002      -0.43263300106485403     1
0.6749999999999998        0.15000000000000002      -0.44534936614720266     1
0.7250000000000001        0.15000000000000002      -0.43340981701099635     1
0.7749999999999999        0.15000000000000002      -0.43499143512121485     1
0.8250000000000002        0.15000000000000002      -0.4350966859066787      1
0.875                     0.15000000000000002      -0.39685015163829906     1
0.9249999999999999        0.15000000000000002      -0.40743472106500256     1
0.9749999999999999        0.15000000000000002      -0.4348429926010764      1
1.025                     0.15000000000000002      -0.4249380314761513      1
1.075                     0.15000000000000002      -0.4378431931753444      1
1.125                     0.15000000000000002      -0.4396391913269259      1
1.175                     0.15000000000000002      -0.4306563191466456      1
1.2249999999999996        0.15000000000000002      -0.37416010131660693     1
1.275                     0.15000000000000002      -0.4314920537008946      1
1.3250000000000002        0.15000000000000002      -0.42889191523297776     1
1.375                     0.15000000000000002      -0.392544482671473       1
1.4249999999999998        0.15000000000000002      -0.38506221410783414     1
1.475                     0.15000000000000002      -0.3775788130833453      1
1.5250000000000004        0.15000000000000002      -0.3689514883813958      1
1.575                     0.15000000000000002      -0.3603241636794481      1
1.625                     0.15000000000000002      -0.3386667857854635      1
1.675                     0.15000000000000002      -0.3402163458166123      1
1.725                     0.15000000000000002      -0.3192635433502259      1
1.775                     0.15000000000000002      -0.32635066398356194     1
1.8250000000000002        0.15000000000000002      -0.3169699753703905      1
1.8749999999999998        0.15000000000000002      -0.3061313601991895      1
1.925                     0.15000000000000002      -0.2945941984984871      1
1.975                     0.15000000000000002      -0.2848669666563579      1
2.025                     0.15000000000000002      -0.2751397348142337      1
2.0749999999999997        0.15000000000000002      -0.26541250297210217     1
2.1250000000000004        0.15000000000000002      -0.2550636024730666      1
2.1750000000000003        0.15000000000000002      -0.24703679905281684     1
2.225                     0.15000000000000002      -0.23911313675906376     1
2.275                     0.15000000000000002      -0.23436578363935867     1
2.3249999999999993        0.15000000000000002      -0.22721907608482317     1
2.375                     0.15000000000000002      -0.21727997790940912     1
2.425                     0.15000000000000002      -0.20801363926951205     1
2.4749999999999996        0.15000000000000002      -0.19874730062962043     1
2.5250000000000004        0.15000000000000002      -0.18948096198972597     1
2.575                     0.15000000000000002      -0.18279796058827252     1
2.625                     0.15000000000000002      -0.17220977778703705     1
2.675                     0.15000000000000002      -0.16627554368876063     1
2.7249999999999996        0.15000000000000002      -0.15796352082605458     1
2.7750000000000004        0.15000000000000002      -0.15120054807154792     1
2.825                     0.15000000000000002      -0.14414366742691875     1
2.875                     0.15000000000000002      -0.13440525904258815     1
2.9250000000000007        0.15000000000000002      -0.12706169060114736     1
2.975                     0.15000000000000002      -0.11971812215970562     1
3.025                     0.15000000000000002      -0.11237455371826492     1
3.0749999999999997        0.15000000000000002      -0.10444422431330508     1
3.1249999999999996        0.15000000000000002      -0.09883201492094237     1
3.1750000000000003        0.15000000000000002      -0.09321980552857945     1
3.225                     0.15000000000000002      -0.08760759613621855     1
3.275                     0.15000000000000002      -0.07797091661831179     1
3.3249999999999997        0.15000000000000002      -0.0708312236972336      1
3.3750000000000004        0.15000000000000002      -0.06566953978284229     1
3.4250000000000003        0.15000000000000002      -0.06050785586845098     1
3.475                     0.15000000000000002      -0.05570765378113059     1
3.525                     0.15000000000000002      -0.04899517438100993     1
3.5749999999999993        0.15000000000000002      -0.04239137292981965     1
3.625                     0.15000000000000002      -0.036470680949856726    1
3.675                     0.15000000000000002      -0.029629190823638116    1
3.7249999999999996        0.15000000000000002      -0.024129900742235977    1
3.7750000000000004        0.15000000000000002      -0.01730923912548793     1
3.825                     0.15000000000000002      -0.011126632642693313    1
3.875                     0.15000000000000002      -0.005775264521694412    1
3.925                     0.15000000000000002      -3.721238886624789E-4    1
3.9749999999999996        0.15000000000000002      0.005248873425425238     1
4.0249999999999995        0.15000000000000002      0.007885067652417366     1
4.074999999999999         0.15000000000000002      0.00715331439683764      1
4.125000000000001         0.15000000000000002      0.006156387034812916     1
4.175000000000001         0.15000000000000002      0.004974987953239418     1
4.225                     0.15000000000000002      0.004048600032382499     1
4.2749999999999995        0.15000000000000002      0.0032393445801269793    1
4.325                     0.15000000000000002      0.0025141652523219538    1
4.375                     0.15000000000000002      0.001674976492306024     1
4.425                     0.15000000000000002      0.0010009572809992484    1
4.475                     0.15000000000000002      3.188187515634211E-4     1
-0.475                    0.25                     -2.984335670820912E-4    1
-0.425                    0.25                     -8.196101235994069E-4    1
-0.375                    0.25                     -0.0014523311979176487   1
-0.32499999999999996      0.25                     -0.002137674899086006    1
-0.275                    0.25                     -0.0027729059879477713   1
-0.22499999999999998      0.25                     -0.0034882941244036014   1
-0.17500000000000004      0.25                     -0.004442619154894689    1
-0.12500000000000006      0.25                     -0.005283635543805801    1
-0.07500000000000001      0.25                     -0.006314284508980916    1
-0.025000000000000022     0.25                     -0.006176972210581777    1
0.024999999999999967      0.25                     -0.03905299758502068     1
0.07500000000000007       0.25                     -0.31372558957204344     1
0.125                     0.25                     -0.23697013305374562     1
0.17500000000000004       0.25                     -0.2988635685568757      1
0.22499999999999998       0.25                     -0.2694440583364919      1
0.275                     0.25                     -0.3584287764433638      1
0.32500000000000007       0.25                     -0.33793389973379995     1
0.375                     0.25                     -0.2777033729513523      1
0.42500000000000004       0.25                     -0.39767333554895384     1
0.4750000000000001        0.25                     -0.4157637648756207      1
0.5249999999999999        0.25                     -0.3618717310356101      1
0.575                     0.25                     -0.37100787632868926     1
0.625                     0.25                     -0.36708678001050643     1
0.6749999999999998        0.25                     -0.38748175034215515     1
0.7250000000000001        0.25                     -0.41388763260347716     1
0.7749999999999999        0.25                     -0.43586502429348806     1
0.8250000000000002        0.25                     -0.448428929948209       1
0.875                     0.25                     -0.46952093214340707     1
0.9249999999999999        0.25                     -0.402824385793509       1
0.9749999999999999        0.25                     -0.4323155350659782      1
1.025                     0.25                     -0.40890467820163945     1
1.075                     0.25                     -0.4141003491926395      1
1.125                     0.25                     -0.43627742351310966     1
1.175                     0.25                     -0.4272945513328281      1
1.2249999999999996        0.25                     -0.33795709803512874     1
1.275                     0.25                     -0.4325325142399201      1
1.3250000000000002        0.25                     -0.4078355316154969      1
1.375                     0.25                     -0.38832015697741906     1
1.4249999999999998        0.25                     -0.3821541661858747      1
1.475                     0.25                     -0.3746718976222301      1
1.5250000000000004        0.25                     -0.3241034956458373      1
1.575                     0.25                     -0.3496627517111095      1
1.625                     0.25                     -0.3417250585524493      1
1.675                     0.25                     -0.34262776590385957     1
1.725                     0.25                     -0.3294785334243862      1
1.775                     0.25                     -0.3208339503221862      1
1.8250000000000002        0.25                     -0.31512223246495097     1
1.8749999999999998        0.25                     -0.30574154385178165     1
1.925                     0.25                     -0.2963608552386088      1
1.975                     0.25                     -0.2943729279319235      1
2.025                     0.25                     -0.2757476727100632      1
2.0749999999999997        0.25                     -0.25987482287208374     1
2.1250000000000004        0.25                     -0.2518480194518329      1
2.1750000000000003        0.25                     -0.24416067534774122     1
2.225                     0.25                     -0.2371241064634082      1
2.275                     0.25                     -0.23065253136062758     1
2.3249999999999993        0.25                     -0.22418095625784762     1
2.375                     0.25                     -0.22199006280156952     1
2.425                     0.25                     -0.20867259696061713     1
2.4749999999999996        0.25                     -0.19940625832072112     1
2.5250000000000004        0.25                     -0.19005208566867715     1
2.575                     0.25                     -0.18196139418341728     1
2.625                     0.25                     -0.17387070269816007     1
2.675                     0.25                     -0.165703613669959       1
2.7249999999999996        0.25                     -0.15832741810538598     1
2.7750000000000004        0.25                     -0.1505033518129264      1
2.825                     0.25                     -0.14701750994220575     1
2.875                     0.25                     -0.1399606292975788      1
2.9250000000000007        0.25                     -0.13348209553585066     1
2.975                     0.25                     -0.12571800110152376     1
3.025                     0.25                     -0.11307428107213191     1
3.0749999999999997        0.25                     -0.10562817369622923     1
3.1249999999999996        0.25                     -0.09837406881621846     1
3.1750000000000003        0.25                     -0.08694834313317812     1
3.225                     0.25                     -0.08274781207079823     1
3.275                     0.25                     -0.0780099709246801      1
3.3249999999999997        0.25                     -0.07306686481514832     1
3.3750000000000004        0.25                     -0.06829543897529788     1
3.4250000000000003        0.25                     -0.060697795003333735    1
3.475                     0.25                     -0.05409138676035982     1
3.525                     0.25                     -0.04748497851738548     1
3.5749999999999993        0.25                     -0.042227549599093805    1
3.625                     0.25                     -0.0353860594728741      1
3.675                     0.25                     -0.024547892045855058    1
3.7249999999999996        0.25                     -0.017569685541650282    1
3.7750000000000004        0.25                     -0.01538807449983981     1
3.825                     0.25                     -0.011173408031064133    1
3.875                     0.25                     -0.00543610782087961     1
3.925                     0.25                     -4.189948067917504E-5    1
3.9749999999999996        0.25                     0.005113054478492307     1
4.0249999999999995        0.25                     0.008490217051449405     1
4.074999999999999         0.25                     0.007291611302885637     1
4.125000000000001         0.25                     0.006169184700093949     1
4.175000000000001         0.25                     0.005086569234451277     1
4.225                     0.25                     0.004034065219561955     1
4.2749999999999995        0.25                     0.003240175690212288     1
4.325                     0.25                     0.002486936476349344     1
4.375                     0.25                     0.001594093757817383     1
4.425                     0.25                     9.564562546902078E-4     1
4.475                     0.25                     3.1881875156344885E-4    1
-0.475                    0.35                     -2.0049170791920645E-4   1
-0.425                    0.35                     -6.014751237575777E-4    1
-0.375                    0.35                     -0.0010024585395959074   1
-0.32499999999999996      0.35                     -0.001403441955434348    1
-0.275                    0.35                     -0.002127082601028424    1
-0.22499999999999998      0.35                     -0.002805820103193357    1
-0.17500000000000004      0.35                     -0.00366677117671918     1
-0.12500000000000006      0.35                     -0.00457198329552079     1
-0.07500000000000001      0.35                     -0.005758780751522252    1
-0.025000000000000022     0.35                     -0.00682592866600773     1
0.024999999999999967      0.35                     -0.027366253978877708    1
0.07500000000000007       0.35                     -0.0716294718833228      1
0.125                     0.35                     -0.0975260392692276      1
0.17500000000000004       0.35                     -0.13697855682742954     1
0.22499999999999998       0.35                     -0.23966908842693568     1
0.275                     0.35                     -0.2649491507106768      1
0.32500000000000007       0.35                     -0.139644751501244       1
0.375                     0.35                     -0.20825403866573922     1
0.42500000000000004       0.35                     -0.38908644165741313     1
0.4750000000000001        0.35                     -0.5079586907171707      1
0.5249999999999999        0.35                     -0.5014810463655532      1
0.575                     0.35                     -0.47183304585609953     1
0.625                     0.35                     -0.40351056926719187     1
0.6749999999999998        0.35                     -0.4353172582831828      1
0.7250000000000001        0.35                     -0.4220344011286255      1
0.7749999999999999        0.35                     -0.3907377467426709      1
0.8250000000000002        0.35                     -0.4172672098309933      1
0.875                     0.35                     -0.40625375096595384     1
0.9249999999999999        0.35                     -0.3812449257348369      1
0.9749999999999999        0.35                     -0.33454047530499054     1
1.025                     0.35                     -0.3786271812303976      1
1.075                     0.35                     -0.37170778830525236     1
1.125                     0.35                     -0.3951146640185854      1
1.175                     0.35                     -0.4347052651740897      1
1.2249999999999996        0.35                     -0.4227609888545061      1
1.275                     0.35                     -0.38489833920861116     1
1.3250000000000002        0.35                     -0.40082625611116907     1
1.375                     0.35                     -0.36637318627612814     1
1.4249999999999998        0.35                     -0.3716788771540284      1
1.475                     0.35                     -0.3548831140223938      1
1.5250000000000004        0.35                     -0.3495391782442141      1
1.575                     0.35                     -0.34025287765125345     1
1.625                     0.35                     -0.32747075619414356     1
1.675                     0.35                     -0.32415911030622624     1
1.725                     0.35                     -0.32998127949551304     1
1.775                     0.35                     -0.3147493105457936      1
1.8250000000000002        0.35                     -0.3061047274435893      1
1.8749999999999998        0.35                     -0.2974601443413887      1
1.925                     0.35                     -0.2737285545349615      1
1.975                     0.35                     -0.2629592351770222      1
2.025                     0.35                     -0.26352212721795626     1
2.0749999999999997        0.35                     -0.25665923985085204     1
2.1250000000000004        0.35                     -0.24942415355224945     1
2.1750000000000003        0.35                     -0.24037796400029876     1
2.225                     0.35                     -0.23133177444834452     1
2.275                     0.35                     -0.2286635010649709      1
2.3249999999999993        0.35                     -0.22219192596219095     1
2.375                     0.35                     -0.2104077035838806      1
2.425                     0.35                     -0.20086047101882532     1
2.4749999999999996        0.35                     -0.1918513037605969      1
2.5250000000000004        0.35                     -0.18921551926382207     1
2.575                     0.35                     -0.18112482777856176     1
2.625                     0.35                     -0.17303413629330677     1
2.675                     0.35                     -0.16494344480804912     1
2.7249999999999996        0.35                     -0.15869131538471581     1
2.7750000000000004        0.35                     -0.15086724909225824     1
2.825                     0.35                     -0.140923824303142       1
2.875                     0.35                     -0.13539207848513302     1
2.9250000000000007        0.35                     -0.13035900349148744     1
2.975                     0.35                     -0.1203569514452506      1
3.025                     0.35                     -0.11074635915280395     1
3.0749999999999997        0.35                     -0.10017799984249176     1
3.1249999999999996        0.35                     -0.09941293391779271     1
3.1750000000000003        0.35                     -0.0940538162550344      1
3.225                     0.35                     -0.08229758422513123     1
3.275                     0.35                     -0.0765986134340062      1
3.3249999999999997        0.35                     -0.07017574335652854     1
3.3750000000000004        0.35                     -0.0636286120855516      1
3.4250000000000003        0.35                     -0.05583511162556398     1
3.475                     0.35                     -0.04892310771533914     1