% Model:              nc_magnet_1.mph
% Version:            COMSOL 6.2.0.415
% Date:               Feb 3 2025, 10:40
% Dimension:          2
% Nodes:              3000
% Expressions:        2
% Description:        Point
% cpl5x                   cpl5y                    Magnetic flux density, y-component Radius
-0.475                    0.05                     -0.004483183446263989    1
-0.425                    0.05                     -0.004610324772566077    1
-0.375                    0.05                     -0.004771230304533203    1
-0.32499999999999996      0.05                     -0.005011742604931868    1
-0.275                    0.05                     -0.00544626770577783     1
-0.22499999999999998      0.05                     -0.005945276115938869    1
-0.17500000000000004      0.05                     -0.006564589226933926    1
-0.12500000000000006      0.05                     -0.007363370587033735    1
-0.07500000000000001      0.05                     -0.00833273977737825     1
-0.025000000000000022     0.05                     -0.0037529780954033143   1
0.024999999999999967      0.05                     1.7911166061566943       1
0.07500000000000007       0.05                     1.7908985022254968       1
0.125                     0.05                     1.7901649293323478       1
0.17500000000000004       0.05                     1.7899517600230666       1
0.22499999999999998       0.05                     1.7886277631408376       1
0.275                     0.05                     1.788063129826729        1
0.32500000000000007       0.05                     1.7858952019561696       1
0.375                     0.05                     1.7855999574360486       1
0.42500000000000004       0.05                     1.784718668304834        1
0.4750000000000001        0.05                     1.7830355950296362       1
0.5249999999999999        0.05                     1.7802765873122606       1
0.575                     0.05                     1.7791012077844677       1
0.625                     0.05                     1.7777413035096044       1
0.6749999999999998        0.05                     1.7761136487732694       1
0.7250000000000001        0.05                     1.7744859940369357       1
0.7749999999999999        0.05                     1.7728583393006003       1
0.8250000000000002        0.05                     1.7702664989922074       1
0.875                     0.05                     1.769387748685653        1
0.9249999999999999        0.05                     1.766917710848452        1
0.9749999999999999        0.05                     1.7651574328733735       1
1.025                     0.05                     1.7633971548982954       1
1.075                     0.05                     1.7617073589174375       1
1.125                     0.05                     1.7595019047472484       1
1.175                     0.05                     1.7579164023296505       1
1.2249999999999996        0.05                     1.756268222384831        1
1.275                     0.05                     1.7544583203976853       1
1.3250000000000002        0.05                     1.7526484184105406       1
1.375                     0.05                     1.7508385164233953       1
1.4249999999999998        0.05                     1.7491535215686607       1
1.475                     0.05                     1.747493138970762        1
1.5250000000000004        0.05                     1.7457322723510493       1
1.575                     0.05                     1.7439604795978743       1
1.625                     0.05                     1.7422244107235354       1
1.675                     0.05                     1.7407627954903881       1
1.725                     0.05                     1.7391555035535056       1
1.775                     0.05                     1.737548211616631        1
1.8250000000000002        0.05                     1.736984073152805        1
1.8749999999999998        0.05                     1.735049498491358        1
1.925                     0.05                     1.7335793505418653       1
1.975                     0.05                     1.7322808247750336       1
2.025                     0.05                     1.7307125498024685       1
2.0749999999999997        0.05                     1.7291442748299062       1
2.1250000000000004        0.05                     1.7281861164086423       1
2.1750000000000003        0.05                     1.7270659704463798       1
2.225                     0.05                     1.7259458244841177       1
2.275                     0.05                     1.724641322782785        1
2.3249999999999993        0.05                     1.7233913189015142       1
2.375                     0.05                     1.7221413150202438       1
2.425                     0.05                     1.7210645134437192       1
2.4749999999999996        0.05                     1.7203264754358112       1
2.5250000000000004        0.05                     1.719449100781826        1
2.575                     0.05                     1.718571726127838        1
2.625                     0.05                     1.7176295936864476       1
2.675                     0.05                     1.7167812678623173       1
2.7249999999999996        0.05                     1.7159329420381884       1
2.7750000000000004        0.05                     1.7150846162140607       1
2.825                     0.05                     1.71407618077437         1
2.875                     0.05                     1.7132747904472074       1
2.9250000000000007        0.05                     1.7132201584617832       1
2.975                     0.05                     1.7126429541994637       1
3.025                     0.05                     1.712065749937143        1
3.0749999999999997        0.05                     1.7112917472242948       1
3.1249999999999996        0.05                     1.7105725007511843       1
3.1750000000000003        0.05                     1.709853254278074        1
3.225                     0.05                     1.7092768974543517       1
3.275                     0.05                     1.7090438370309202       1
3.3249999999999997        0.05                     1.7090802938328862       1
3.3750000000000004        0.05                     1.7091167506348535       1
3.4250000000000003        0.05                     1.7088382098302293       1
3.475                     0.05                     1.7089130524837215       1
3.525                     0.05                     1.7080031189677776       1
3.5749999999999993        0.05                     1.707812180311632        1
3.625                     0.05                     1.7073204671862838       1
3.675                     0.05                     1.7074539738686063       1
3.7249999999999996        0.05                     1.7072752229886357       1
3.7750000000000004        0.05                     1.7071199160945731       1
3.825                     0.05                     1.7070859518963524       1
3.875                     0.05                     1.707177961475785        1
3.925                     0.05                     1.7071719794488958       1
3.9749999999999996        0.05                     1.7071727642913306       1
4.0249999999999995        0.05                     -0.006283078742010062    1
4.074999999999999         0.05                     -0.011145346063307748    1
4.125000000000001         0.05                     -0.010404667597793793    1
4.175000000000001         0.05                     -0.009776172529457838    1
4.225                     0.05                     -0.009208297433813822    1
4.2749999999999995        0.05                     -0.00879702648372055     1
4.325                     0.05                     -0.008447985118823387    1
4.375                     0.05                     -0.008152738764298673    1
4.425                     0.05                     -0.007969256859021057    1
4.475                     0.05                     -0.007892212270836751    1
-0.475                    0.15000000000000002      -0.004368775855192436    1
-0.425                    0.15000000000000002      -0.004455131542740465    1
-0.375                    0.15000000000000002      -0.004719575166933887    1
-0.32499999999999996      0.15000000000000002      -0.004928176761635261    1
-0.275                    0.15000000000000002      -0.005097651032384454    1
-0.22499999999999998      0.15000000000000002      -0.005721731916091405    1
-0.17500000000000004      0.15000000000000002      -0.006350893434007521    1
-0.12500000000000006      0.15000000000000002      -0.007208495638139745    1
-0.07500000000000001      0.15000000000000002      -0.00820117830117445     1
-0.025000000000000022     0.15000000000000002      -0.003712910864543062    1
0.024999999999999967      0.15000000000000002      1.791296411886428        1
0.07500000000000007       0.15000000000000002      1.7910787272715694       1
0.125                     0.15000000000000002      1.790478746617512        1
0.17500000000000004       0.15000000000000002      1.7895557144058531       1
0.22499999999999998       0.15000000000000002      1.7888086954869964       1
0.275                     0.15000000000000002      1.7883377855804987       1
0.32500000000000007       0.15000000000000002      1.7866384454974509       1
0.375                     0.15000000000000002      1.7852872010735947       1
0.42500000000000004       0.15000000000000002      1.7826912032064777       1
0.4750000000000001        0.15000000000000002      1.7819663340692722       1
0.5249999999999999        0.15000000000000002      1.781289089943245        1
0.575                     0.15000000000000002      1.7797957436119676       1
0.625                     0.15000000000000002      1.7778822312843587       1
0.6749999999999998        0.15000000000000002      1.7762357880980106       1
0.7250000000000001        0.15000000000000002      1.774503937177931        1
0.7749999999999999        0.15000000000000002      1.7720372237633026       1
0.8250000000000002        0.15000000000000002      1.7706951866726544       1
0.875                     0.15000000000000002      1.769111867186563        1
0.9249999999999999        0.15000000000000002      1.7671558550058708       1
0.9749999999999999        0.15000000000000002      1.7651931029241776       1
1.025                     0.15000000000000002      1.7633484766648166       1
1.075                     0.15000000000000002      1.7615038504054554       1
1.125                     0.15000000000000002      1.7596503767627705       1
1.175                     0.15000000000000002      1.7579951283819124       1
1.2249999999999996        0.15000000000000002      1.7561514176013207       1
1.275                     0.15000000000000002      1.754235439023013        1
1.3250000000000002        0.15000000000000002      1.7526227201555677       1
1.375                     0.15000000000000002      1.7508066518399223       1
1.4249999999999998        0.15000000000000002      1.7491452039474433       1
1.475                     0.15000000000000002      1.7473981129023737       1
1.5250000000000004        0.15000000000000002      1.7457091139157708       1
1.575                     0.15000000000000002      1.7440722350745734       1
1.625                     0.15000000000000002      1.7425414198303688       1
1.675                     0.15000000000000002      1.7410199615626936       1
1.725                     0.15000000000000002      1.7404114082288626       1
1.775                     0.15000000000000002      1.7381013061447748       1
1.8250000000000002        0.15000000000000002      1.7365749703653695       1
1.8749999999999998        0.15000000000000002      1.7348587834404614       1
1.925                     0.15000000000000002      1.7335919169835114       1
1.975                     0.15000000000000002      1.732325050526559        1
2.025                     0.15000000000000002      1.731058184069606        1
2.0749999999999997        0.15000000000000002      1.729668154564406        1
2.1250000000000004        0.15000000000000002      1.7285294146044636       1
2.1750000000000003        0.15000000000000002      1.727409268642202        1
2.225                     0.15000000000000002      1.72617547748239         1
2.275                     0.15000000000000002      1.724756178826421        1
2.3249999999999993        0.15000000000000002      1.7237160363277835       1
2.375                     0.15000000000000002      1.7226758938291458       1
2.425                     0.15000000000000002      1.7216357513305103       1
2.4749999999999996        0.15000000000000002      1.7205956088318741       1
2.5250000000000004        0.15000000000000002      1.719920806724452        1
2.575                     0.15000000000000002      1.7190434320704624       1
2.625                     0.15000000000000002      1.718145634772188        1
2.675                     0.15000000000000002      1.7170696573671713       1
2.7249999999999996        0.15000000000000002      1.7162031407855693       1
2.7750000000000004        0.15000000000000002      1.715336624203967        1
2.825                     0.15000000000000002      1.7144701076223652       1
2.875                     0.15000000000000002      1.713733825491248        1
2.9250000000000007        0.15000000000000002      1.7133175945893995       1
2.975                     0.15000000000000002      1.712901363687552        1
3.025                     0.15000000000000002      1.712485132785703        1
3.0749999999999997        0.15000000000000002      1.7119650548757734       1
3.1249999999999996        0.15000000000000002      1.7112458084026625       1
3.1750000000000003        0.15000000000000002      1.7105258544792825       1
3.225                     0.15000000000000002      1.7101692878550807       1
3.275                     0.15000000000000002      1.7097792006273176       1
3.3249999999999997        0.15000000000000002      1.7092424386070115       1
3.3750000000000004        0.15000000000000002      1.7084955704497329       1
3.4250000000000003        0.15000000000000002      1.7084740757733132       1
3.475                     0.15000000000000002      1.708452581096894        1
3.525                     0.15000000000000002      1.708364823420361        1
3.5749999999999993        0.15000000000000002      1.7078731102950129       1
3.625                     0.15000000000000002      1.7074482096691215       1
3.675                     0.15000000000000002      1.7074163630942203       1
3.7249999999999996        0.15000000000000002      1.7073845165193147       1
3.7750000000000004        0.15000000000000002      1.707126163251493        1
3.825                     0.15000000000000002      1.7072012530721135       1
3.875                     0.15000000000000002      1.7071821896742765       1
3.925                     0.15000000000000002      1.7071626620827782       1
3.9749999999999996        0.15000000000000002      1.7071962938367733       1
4.0249999999999995        0.15000000000000002      -0.006273594618573242    1
4.074999999999999         0.15000000000000002      -0.01114478380608075     1
4.125000000000001         0.15000000000000002      -0.010394889736847546    1
4.175000000000001         0.15000000000000002      -0.009758824466385985    1
4.225                     0.15000000000000002      -0.00921897683841666     1
4.2749999999999995        0.15000000000000002      -0.00867890622100087     1
4.325                     0.15000000000000002      -0.00840948337757852     1
4.375                     0.15000000000000002      -0.008140060534153948    1
4.425                     0.15000000000000002      -0.007966210969103715    1
4.475                     0.15000000000000002      -0.007889604504022207    1
-0.475                    0.25                     -0.004127235865238232    1
-0.425                    0.25                     -0.004203519481065676    1
-0.375                    0.25                     -0.004355893417880272    1
-0.32499999999999996      0.25                     -0.004535614397593202    1
-0.275                    0.25                     -0.00471533537730684     1
-0.22499999999999998      0.25                     -0.005283944371135885    1
-0.17500000000000004      0.25                     -0.005863503990101604    1
-0.12500000000000006      0.25                     -0.006673714467235872    1
-0.07500000000000001      0.25                     -0.007707247338185501    1
-0.025000000000000022     0.25                     -0.003500309143660729    1
0.024999999999999967      0.25                     1.7912650375921135       1
0.07500000000000007       0.25                     1.7911825937755612       1
0.125                     0.25                     1.7904276516309743       1
0.17500000000000004       0.25                     1.7897576875269725       1
0.22499999999999998       0.25                     1.7888832579620948       1
0.275                     0.25                     1.787940542681268        1
0.32500000000000007       0.25                     1.7866072601196272       1
0.375                     0.25                     1.7853697583734882       1
0.42500000000000004       0.25                     1.783901025406012        1
0.4750000000000001        0.25                     1.7822839069010357       1
0.5249999999999999        0.25                     1.7809422359734053       1
0.575                     0.25                     1.7792421998722425       1
0.625                     0.25                     1.7773784050806831       1
0.6749999999999998        0.25                     1.775777847739349        1
0.7250000000000001        0.25                     1.7740766481758774       1
0.7749999999999999        0.25                     1.7724559630991683       1
0.8250000000000002        0.25                     1.770447694276844        1
0.875                     0.25                     1.7686373706770526       1
0.9249999999999999        0.25                     1.7668139169561585       1
0.9749999999999999        0.25                     1.7650622249551589       1
1.025                     0.25                     1.7632802190806602       1
1.075                     0.25                     1.7616195521384164       1
1.125                     0.25                     1.7593296478345817       1
1.175                     0.25                     1.7576477228936085       1
1.2249999999999996        0.25                     1.75598737980983         1
1.275                     0.25                     1.7542277665501016       1
1.3250000000000002        0.25                     1.7525818353967964       1
1.375                     0.25                     1.7506960592591936       1
1.4249999999999998        0.25                     1.749148036681163        1
1.475                     0.25                     1.7472471443575603       1
1.5250000000000004        0.25                     1.7455074133226698       1
1.575                     0.25                     1.7440055632574556       1
1.625                     0.25                     1.742425736598741        1
1.675                     0.25                     1.74081949760871         1
1.725                     0.25                     1.7392016315228744       1
1.775                     0.25                     1.7378743658759415       1
1.8250000000000002        0.25                     1.736446226210759        1
1.8749999999999998        0.25                     1.735947462356513        1
1.925                     0.25                     1.733609025531291        1
1.975                     0.25                     1.7324297440789396       1
2.025                     0.25                     1.7312504626265905       1
2.0749999999999997        0.25                     1.7300711811742417       1
2.1250000000000004        0.25                     1.7285752056607648       1
2.1750000000000003        0.25                     1.7272369984050724       1
2.225                     0.25                     1.7261266119466194       1
2.275                     0.25                     1.725016225488171        1
2.3249999999999993        0.25                     1.723905839029718        1
2.375                     0.25                     1.7227954525712597       1
2.425                     0.25                     1.7216850661128147       1
2.4749999999999996        0.25                     1.7205746796543613       1
2.5250000000000004        0.25                     1.7205679043601503       1
2.575                     0.25                     1.7195710633647998       1
2.625                     0.25                     1.718184560162817        1
2.675                     0.25                     1.7173267774476138       1
2.7249999999999996        0.25                     1.716468994732407        1
2.7750000000000004        0.25                     1.7156112120171993       1
2.825                     0.25                     1.7147534293019895       1
2.875                     0.25                     1.714476817355811        1
2.9250000000000007        0.25                     1.7139318256274345       1
2.975                     0.25                     1.7128783393307618       1
3.025                     0.25                     1.7125761576270437       1
3.0749999999999997        0.25                     1.7115429633627206       1
3.1249999999999996        0.25                     1.7110036652418568       1
3.1750000000000003        0.25                     1.7105560877041408       1
3.225                     0.25                     1.7102632812350667       1
3.275                     0.25                     1.709618715467037        1
3.3249999999999997        0.25                     1.709004214817274        1
3.3750000000000004        0.25                     1.7088043409296347       1
3.4250000000000003        0.25                     1.708604467041992        1
3.475                     0.25                     1.7084045931543521       1
3.525                     0.25                     1.7082154334278652       1
3.5749999999999993        0.25                     1.7078133318897781       1
3.625                     0.25                     1.7078658446385324       1
3.675                     0.25                     1.707563548360305        1
3.7249999999999996        0.25                     1.7074869198809792       1
3.7750000000000004        0.25                     1.7073417011713845       1
3.825                     0.25                     1.7072548497099072       1
3.875                     0.25                     1.7072383174567358       1
3.925                     0.25                     1.7072315675891243       1
3.9749999999999996        0.25                     1.707280402108935        1
4.0249999999999995        0.25                     -0.0062754771537303355   1
4.074999999999999         0.25                     -0.011123864089903623    1
4.125000000000001         0.25                     -0.010356812992837375    1
4.175000000000001         0.25                     -0.009734402819349341    1
4.225                     0.25                     -0.009182374784837188    1
4.2749999999999995        0.25                     -0.008630346750324591    1
4.325                     0.25                     -0.008300497076647428    1
4.375                     0.25                     -0.008116628275395263    1
4.425                     0.25                     -0.007932759474140516    1
4.475                     0.25                     -0.007845963660230881    1
-0.475                    0.35                     -0.0037070252107757468   1
-0.425                    0.35                     -0.00382927823939698     1
-0.375                    0.35                     -0.003916710478301888    1
-0.32499999999999996      0.35                     -0.003988007577872876    1
-0.275                    0.35                     -0.004280496694142322    1
-0.22499999999999998      0.35                     -0.004623048660747142    1
-0.17500000000000004      0.35                     -0.005015846625148035    1
-0.12500000000000006      0.35                     -0.005465986837743353    1
-0.07500000000000001      0.35                     -0.006295470809896342    1
-0.025000000000000022     0.35                     -0.00702832428473954     1
0.024999999999999967      0.35                     -0.007869167552680523    1
0.07500000000000007       0.35                     -0.007128727538599833    1
0.125                     0.35                     -0.004333405117754374    1
0.17500000000000004       0.35                     -0.0014454523625269111   1
0.22499999999999998       0.35                     0.0014434865086272453    1
0.275                     0.35                     0.004343148126942253     1
0.32500000000000007       0.35                     1.7866988392006462       1
0.375                     0.35                     1.7851959395698103       1
0.42500000000000004       0.35                     1.7837994115644698       1
0.4750000000000001        0.35                     1.7822404915419605       1
0.5249999999999999        0.35                     1.78079760642555         1
0.575                     0.35                     1.7789953745187859       1
0.625                     0.35                     1.777467765674161        1
0.6749999999999998        0.35                     1.775559102027925        1
0.7250000000000001        0.35                     1.7739650928470603       1
0.7749999999999999        0.35                     1.7720894135663396       1
0.8250000000000002        0.35                     1.7702535722025639       1
0.875                     0.35                     1.7684901722031023       1
0.9249999999999999        0.35                     1.7666278269490245       1
0.9749999999999999        0.35                     1.764805658617898        1
1.025                     0.35                     1.7629967480248472       1
1.075                     0.35                     1.7611451566024652       1
1.125                     0.35                     1.759384127498464        1
1.175                     0.35                     1.7576136538474856       1
1.2249999999999996        0.35                     1.7557877183966475       1
1.275                     0.35                     1.7540793519559603       1
1.3250000000000002        0.35                     1.7522424115400497       1
1.375                     0.35                     1.7505031628139118       1
1.4249999999999998        0.35                     1.7488424674729102       1
1.475                     0.35                     1.7470395044911555       1
1.5250000000000004        0.35                     1.7454910549921159       1
1.575                     0.35                     1.7438897944736858       1
1.625                     0.35                     1.742261278497283        1
1.675                     0.35                     1.7407577567842338       1
1.725                     0.35                     1.7389797039871873       1
1.775                     0.35                     1.7376907567231523       1
1.8250000000000002        0.35                     1.7361648884542982       1
1.8749999999999998        0.35                     1.7348441101267724       1
1.925                     0.35                     1.733498464081217        1
1.975                     0.35                     1.7320984183575523       1
2.025                     0.35                     1.730786726971516        1
2.0749999999999997        0.35                     1.7296048597521159       1
2.1250000000000004        0.35                     1.7285391337426965       1
2.1750000000000003        0.35                     1.7271371894177339       1
2.225                     0.35                     1.7260683058667787       1
2.275                     0.35                     1.725019675513369        1
2.3249999999999993        0.35                     1.7239942812328417       1
2.375                     0.35                     1.7229688869523097       1
2.425                     0.35                     1.7217184330657447       1
2.4749999999999996        0.35                     1.7206774478692815       1
2.5250000000000004        0.35                     1.7201588986238452       1
2.575                     0.35                     1.7187992933955933       1
2.625                     0.35                     1.717900826538015        1
2.675                     0.35                     1.7172357524093922       1
2.7249999999999996        0.35                     1.7163828958805942       1
2.7750000000000004        0.35                     1.7155192482841408       1
2.825                     0.35                     1.7150631785515835       1
2.875                     0.35                     1.714231808656038        1
2.9250000000000007        0.35                     1.713553150386212        1
2.975                     0.35                     1.712988706481934        1
3.025                     0.35                     1.7121890759365779       1
3.0749999999999997        0.35                     1.711953390802115        1
3.1249999999999996        0.35                     1.7112440732365375       1
3.1750000000000003        0.35                     1.7105873476942746       1
3.225                     0.35                     1.7099306221520116       1
3.275                     0.35                     1.709820460946637        1
3.3249999999999997        0.35                     1.709406258376231        1
3.3750000000000004        0.35                     1.7091306430908002       1
3.4250000000000003        0.35                     1.7087604496143105       1
3.475                     0.35                     1.7083879273213913       1