% Model:              nc_magnet_1.mph
% Version:            COMSOL 6.2.0.415
% Date:               Feb 3 2025, 10:42
% Dimension:          2
% Nodes:              3000
% Expressions:        2
% Description:        Point
% cpl8x                   cpl8y                    Magnetic flux density, y-component Radius
-0.475                    0.05                     -0.001757204177043864    1
-0.425                    0.05                     -0.0017202794710652457   1
-0.375                    0.05                     -0.0016833547650869085   1
-0.32499999999999996      0.05                     -0.001578581084513031    1
-0.275                    0.05                     -0.0014609324338205054   1
-0.22499999999999998      0.05                     -0.0011079336398747142   1
-0.17500000000000004      0.05                     -7.304053570420521E-4    1
-0.12500000000000006      0.05                     -7.491592167369054E-6    1
-0.07500000000000001      0.05                     0.0014450473542142739    1
-0.025000000000000022     0.05                     0.003023117637150463     1
0.024999999999999967      0.05                     1.7545274735288745       1
0.07500000000000007       0.05                     1.7674023315463696       1
0.125                     0.05                     1.7571281231272764       1
0.17500000000000004       0.05                     1.7535686931763308       1
0.22499999999999998       0.05                     1.7411995766648412       1
0.275                     0.05                     1.7434783131559917       1
0.32500000000000007       0.05                     1.7578821643352875       1
0.375                     0.05                     1.755438439578983        1
0.42500000000000004       0.05                     1.7424233884647817       1
0.4750000000000001        0.05                     1.7499308076036448       1
0.5249999999999999        0.05                     1.7396942037860785       1
0.575                     0.05                     1.7352043307830698       1
0.625                     0.05                     1.7337622653891114       1
0.6749999999999998        0.05                     1.7323201999951574       1
0.7250000000000001        0.05                     1.7642374684918536       1
0.7749999999999999        0.05                     1.7606695658024436       1
0.8250000000000002        0.05                     1.763168046300994        1
0.875                     0.05                     1.7233515132793336       1
0.9249999999999999        0.05                     1.7208462539654534       1
0.9749999999999999        0.05                     1.7183409946515718       1
1.025                     0.05                     1.7190056385678796       1
1.075                     0.05                     1.7771308446396599       1
1.125                     0.05                     1.7814493154959474       1
1.175                     0.05                     1.709495696871755        1
1.2249999999999996        0.05                     1.7072891769710041       1
1.275                     0.05                     1.7050826570702526       1
1.3250000000000002        0.05                     1.7028761371695005       1
1.375                     0.05                     1.7012019651925399       1
1.4249999999999998        0.05                     1.6975857281552602       1
1.475                     0.05                     1.7176821014387942       1
1.5250000000000004        0.05                     1.699609341741825        1
1.575                     0.05                     1.6972831935080284       1
1.625                     0.05                     1.6949570452742326       1
1.675                     0.05                     1.692630897040438        1
1.725                     0.05                     1.6903047488066432       1
1.775                     0.05                     1.6962662316459016       1
1.8250000000000002        0.05                     1.6912337233080086       1
1.8749999999999998        0.05                     1.6821638233039407       1
1.925                     0.05                     1.681867062506626        1
1.975                     0.05                     1.6925826644573627       1
2.025                     0.05                     1.6910461419826923       1
2.0749999999999997        0.05                     1.6895096195080215       1
2.1250000000000004        0.05                     1.6879730970333569       1
2.1750000000000003        0.05                     1.6933203496200164       1
2.225                     0.05                     1.6920426212218282       1
2.275                     0.05                     1.6884867289692513       1
2.3249999999999993        0.05                     1.6814191854922247       1
2.375                     0.05                     1.6807402540306948       1
2.425                     0.05                     1.6800613225691678       1
2.4749999999999996        0.05                     1.6793823911076395       1
2.5250000000000004        0.05                     1.678703459646115        1
2.575                     0.05                     1.678024528184587        1
2.625                     0.05                     1.6819111456977496       1
2.675                     0.05                     1.6825265410517312       1
2.7249999999999996        0.05                     1.6798733066436902       1
2.7750000000000004        0.05                     1.6746886884661794       1
2.825                     0.05                     1.6743527676848544       1
2.875                     0.05                     1.6740168469035308       1
2.9250000000000007        0.05                     1.6736809261222063       1
2.975                     0.05                     1.6733450053408827       1
3.025                     0.05                     1.6730090845595573       1
3.0749999999999997        0.05                     1.6746796518260652       1
3.1249999999999996        0.05                     1.674569780251216        1
3.1750000000000003        0.05                     1.6716122482566822       1
3.225                     0.05                     1.6731665023376543       1
3.275                     0.05                     1.6731770307025018       1
3.3249999999999997        0.05                     1.6731875590673466       1
3.3750000000000004        0.05                     1.669628527624371        1
3.4250000000000003        0.05                     1.668822753039004        1
3.475                     0.05                     1.671058838052452        1
3.525                     0.05                     1.6699568083807708       1
3.5749999999999993        0.05                     1.6695814968120581       1
3.625                     0.05                     1.6704312474142715       1
3.675                     0.05                     1.674576621183181        1
3.7249999999999996        0.05                     1.6691407619172574       1
3.7750000000000004        0.05                     1.668947149802147        1
3.825                     0.05                     1.668858393348971        1
3.875                     0.05                     1.668225232996226        1
3.925                     0.05                     1.6680702237664198       1
3.9749999999999996        0.05                     1.6678928482266422       1
4.0249999999999995        0.05                     9.568278970717714E-4     1
4.074999999999999         0.05                     -7.05852015940478E-4     1
4.125000000000001         0.05                     -0.002177700575410779    1
4.175000000000001         0.05                     -0.0027121864753469893   1
4.225                     0.05                     -0.0030309360692095666   1
4.2749999999999995        0.05                     -0.003374907071406863    1
4.325                     0.05                     -0.003510991490438542    1
4.375                     0.05                     -0.003647075909470887    1
4.425                     0.05                     -0.0036208896680944846   1
4.475                     0.05                     -0.00372584639156983     1
-0.475                    0.15000000000000002      -0.0017967217549091233   1
-0.425                    0.15000000000000002      -0.0017316270045496483   1
-0.375                    0.15000000000000002      -0.0016665322541908386   1
-0.32499999999999996      0.15000000000000002      -0.0015850600707255427   1
-0.275                    0.15000000000000002      -0.001367747077205106    1
-0.22499999999999998      0.15000000000000002      -0.0011742599885582183   1
-0.17500000000000004      0.15000000000000002      -8.318913211371147E-4    1
-0.12500000000000006      0.15000000000000002      -7.021516343508338E-5    1
-0.07500000000000001      0.15000000000000002      0.0011902859839277857    1
-0.025000000000000022     0.15000000000000002      0.0025522974649470065    1
0.024999999999999967      0.15000000000000002      1.653312182046656        1
0.07500000000000007       0.15000000000000002      1.6703607518784933       1
0.125                     0.15000000000000002      1.7016181685685525       1
0.17500000000000004       0.15000000000000002      1.7003433142262705       1
0.22499999999999998       0.15000000000000002      1.7251288925377142       1
0.275                     0.15000000000000002      1.723706065660432        1
0.32500000000000007       0.15000000000000002      1.7300479129285211       1
0.375                     0.15000000000000002      1.7276166488541698       1
0.42500000000000004       0.15000000000000002      1.7377202536473129       1
0.4750000000000001        0.15000000000000002      1.75608768231369         1
0.5249999999999999        0.15000000000000002      1.757248289512944        1
0.575                     0.15000000000000002      1.757682244132259        1
0.625                     0.15000000000000002      1.758116198751574        1
0.6749999999999998        0.15000000000000002      1.7424622179301232       1
0.7250000000000001        0.15000000000000002      1.7212719118108493       1
0.7749999999999999        0.15000000000000002      1.72091643180739         1
0.8250000000000002        0.15000000000000002      1.7207200198286885       1
0.875                     0.15000000000000002      1.766646169694133        1
0.9249999999999999        0.15000000000000002      1.769144650192684        1
0.9749999999999999        0.15000000000000002      1.720836983536296        1
1.025                     0.15000000000000002      1.72151476290357         1
1.075                     0.15000000000000002      1.770057957436092        1
1.125                     0.15000000000000002      1.716944544259223        1
1.175                     0.15000000000000002      1.718503305165709        1
1.2249999999999996        0.15000000000000002      1.7887971651377301       1
1.275                     0.15000000000000002      1.708456558591051        1
1.3250000000000002        0.15000000000000002      1.7062500386903006       1
1.375                     0.15000000000000002      1.707486485394626        1
1.4249999999999998        0.15000000000000002      1.7038720157361513       1
1.475                     0.15000000000000002      1.700114995419194        1
1.5250000000000004        0.15000000000000002      1.696387176107458        1
1.575                     0.15000000000000002      1.6926593567957193       1
1.625                     0.15000000000000002      1.7107989869011935       1
1.675                     0.15000000000000002      1.6953340628819031       1
1.725                     0.15000000000000002      1.7027308819685236       1
1.775                     0.15000000000000002      1.6859009603505863       1
1.8250000000000002        0.15000000000000002      1.684394193131793        1
1.8749999999999998        0.15000000000000002      1.6933612823550415       1
1.925                     0.15000000000000002      1.6842558228378075       1
1.975                     0.15000000000000002      1.6839590620404927       1
2.025                     0.15000000000000002      1.6836623012431757       1
2.0749999999999997        0.15000000000000002      1.6833655404458636       1
2.1250000000000004        0.15000000000000002      1.6860636521413723       1
2.1750000000000003        0.15000000000000002      1.6850708883876075       1
2.225                     0.15000000000000002      1.6838489775467336       1
2.275                     0.15000000000000002      1.6815945672053787       1
2.3249999999999993        0.15000000000000002      1.6816192033649844       1
2.375                     0.15000000000000002      1.6776288594265059       1
2.425                     0.15000000000000002      1.678516026701145        1
2.4749999999999996        0.15000000000000002      1.6794031939757823       1
2.5250000000000004        0.15000000000000002      1.680290361250421        1
2.575                     0.15000000000000002      1.6769868740650247       1
2.625                     0.15000000000000002      1.6804515658380599       1
2.675                     0.15000000000000002      1.6793392560826859       1
2.7249999999999996        0.15000000000000002      1.6751857583211631       1
2.7750000000000004        0.15000000000000002      1.6752457447453697       1
2.825                     0.15000000000000002      1.6753932829121803       1
2.875                     0.15000000000000002      1.6761574352415058       1
2.9250000000000007        0.15000000000000002      1.67582151446018         1
2.975                     0.15000000000000002      1.6754855936788553       1
3.025                     0.15000000000000002      1.675149672897532        1
3.0749999999999997        0.15000000000000002      1.673865381067643        1
3.1249999999999996        0.15000000000000002      1.6733813614512194       1
3.1750000000000003        0.15000000000000002      1.6728973418348003       1
3.225                     0.15000000000000002      1.6724133222183797       1
3.275                     0.15000000000000002      1.6736222970239278       1
3.3249999999999997        0.15000000000000002      1.6715902062530614       1
3.3750000000000004        0.15000000000000002      1.6707844316676959       1
3.4250000000000003        0.15000000000000002      1.6699786570823292       1
3.475                     0.15000000000000002      1.669336553941612        1
3.525                     0.15000000000000002      1.6701233890426763       1
3.5749999999999993        0.15000000000000002      1.6719171730092433       1
3.625                     0.15000000000000002      1.6696006443822244       1
3.675                     0.15000000000000002      1.6695848982145476       1
3.7249999999999996        0.15000000000000002      1.6703635693462955       1
3.7750000000000004        0.15000000000000002      1.6693839082527804       1
3.825                     0.15000000000000002      1.6690082709810246       1
3.875                     0.15000000000000002      1.6689019107808967       1
3.925                     0.15000000000000002      1.668576062640588        1
3.9749999999999996        0.15000000000000002      1.6683829359231575       1
4.0249999999999995        0.15000000000000002      8.725289997806307E-4     1
4.074999999999999         0.15000000000000002      -7.667931792239013E-4    1
4.125000000000001         0.15000000000000002      -0.0020606408613259575   1
4.175000000000001         0.15000000000000002      -0.002647967382682803    1
4.225                     0.15000000000000002      -0.00310735788005001     1
4.2749999999999995        0.15000000000000002      -0.0033637492363854937   1
4.325                     0.15000000000000002      -0.0034663757749133772   1
4.375                     0.15000000000000002      -0.00355655228561913     1
4.425                     0.15000000000000002      -0.0036515007852390147   1
4.475                     0.15000000000000002      -0.0036971357693912354   1
-0.475                    0.25                     -0.001829162750743893    1
-0.425                    0.25                     -0.0017866690500230459   1
-0.375                    0.25                     -0.0017473322029683165   1
-0.32499999999999996      0.25                     -0.0016462580416698458   1
-0.275                    0.25                     -0.0014797559487693679   1
-0.22499999999999998      0.25                     -0.001472844121420347    1
-0.17500000000000004      0.25                     -9.577277618693647E-4    1
-0.12500000000000006      0.25                     -3.9436808215889685E-4   1
-0.07500000000000001      0.25                     3.8410698744328897E-4    1
-0.025000000000000022     0.25                     0.0018264154921574516    1
0.024999999999999967      0.25                     1.020343112038443        1
0.07500000000000007       0.25                     1.1493534994071037       1
0.125                     0.25                     1.1042095252976982       1
0.17500000000000004       0.25                     1.2178559657641805       1
0.22499999999999998       0.25                     1.342117409994179        1
0.275                     0.25                     1.505928003536412        1
0.32500000000000007       0.25                     1.4513795836007146       1
0.375                     0.25                     1.6656173774440688       1
0.42500000000000004       0.25                     1.710112345242243        1
0.4750000000000001        0.25                     1.6441409109447092       1
0.5249999999999999        0.25                     1.620459772380587        1
0.575                     0.25                     1.695446927185965        1
0.625                     0.25                     1.7010723222128163       1
0.6749999999999998        0.25                     1.7131998330900111       1
0.7250000000000001        0.25                     1.7267625974301064       1
0.7749999999999999        0.25                     1.7118813275190705       1
0.8250000000000002        0.25                     1.7168499095041891       1
0.875                     0.25                     1.7412615862935592       1
0.9249999999999999        0.25                     1.67698137279372         1
0.9749999999999999        0.25                     1.7253582912642127       1
1.025                     0.25                     1.7560746066350834       1
1.075                     0.25                     1.7547968019690157       1
1.125                     0.25                     1.720669473978517        1
1.175                     0.25                     1.7222282348849987       1
1.2249999999999996        0.25                     1.8103656472017011       1
1.275                     0.25                     1.7162986364970085       1
1.3250000000000002        0.25                     1.7157770595014674       1
1.375                     0.25                     1.7124038014349996       1
1.4249999999999998        0.25                     1.7101583033170433       1
1.475                     0.25                     1.7065438336585683       1
1.5250000000000004        0.25                     1.7241059270025518       1
1.575                     0.25                     1.7070914349547919       1
1.625                     0.25                     1.7034412682627835       1
1.675                     0.25                     1.709315732418552        1
1.725                     0.25                     1.6968822199398965       1
1.775                     0.25                     1.694647874142365        1
1.8250000000000002        0.25                     1.6891770376973354       1
1.8749999999999998        0.25                     1.6876702704785438       1
1.925                     0.25                     1.6861635032597575       1
1.975                     0.25                     1.6942621229630328       1
2.025                     0.25                     1.6860510615743518       1
2.0749999999999997        0.25                     1.6921607074623255       1
2.1250000000000004        0.25                     1.6911679437085587       1
2.1750000000000003        0.25                     1.6920213668371757       1
2.225                     0.25                     1.6894865209082242       1
2.275                     0.25                     1.6875944463188013       1
2.3249999999999993        0.25                     1.685702371729385        1
2.375                     0.25                     1.6833531222283407       1
2.425                     0.25                     1.6808633393085088       1
2.4749999999999996        0.25                     1.6817505065831484       1
2.5250000000000004        0.25                     1.6814015819418269       1
2.575                     0.25                     1.6811230198894158       1
2.625                     0.25                     1.680844457837007        1
2.675                     0.25                     1.6813383154339485       1
2.7249999999999996        0.25                     1.6791998316922645       1
2.7750000000000004        0.25                     1.678448834789025        1
2.825                     0.25                     1.6769086195720226       1
2.875                     0.25                     1.6770561577388317       1
2.9250000000000007        0.25                     1.6794839225700997       1
2.975                     0.25                     1.6797011468418779       1
3.025                     0.25                     1.6805670182822263       1
3.0749999999999997        0.25                     1.6804006966244267       1
3.1249999999999996        0.25                     1.6746664550293398       1
3.1750000000000003        0.25                     1.675804336779763        1
3.225                     0.25                     1.6743451506657099       1
3.275                     0.25                     1.6737280359286566       1
3.3249999999999997        0.25                     1.6734861028956192       1
3.3750000000000004        0.25                     1.6737487126670862       1
3.4250000000000003        0.25                     1.6721399479032715       1
3.475                     0.25                     1.6725449071862493       1
3.525                     0.25                     1.6729498664692233       1
3.5749999999999993        0.25                     1.6709068933300402       1
3.625                     0.25                     1.670891147162364        1
3.675                     0.25                     1.670830327443133        1
3.7249999999999996        0.25                     1.670816083265353        1
3.7750000000000004        0.25                     1.6698058449227968       1
3.825                     0.25                     1.6700668329937187       1
3.875                     0.25                     1.6694929686203326       1
3.925                     0.25                     1.6696206967517295       1
3.9749999999999996        0.25                     1.669256775982152        1
4.0249999999999995        0.25                     0.0010163341721498523    1
4.074999999999999         0.25                     -6.856233073501694E-4    1
4.125000000000001         0.25                     -0.001933597137809051    1
4.175000000000001         0.25                     -0.002633170114260175    1
4.225                     0.25                     -0.0031000806382068813   1
4.2749999999999995        0.25                     -0.003321566667015219    1
4.325                     0.25                     -0.0035329234352945438   1
4.375                     0.25                     -0.003477420913857221    1
4.425                     0.25                     -0.003586074509873638    1
4.475                     0.25                     -0.003694728105889805    1
-0.475                    0.35                     -0.0017706752791889421   1
-0.425                    0.35                     -0.0017717643108020736   1
-0.375                    0.35                     -0.001772853342414893    1
-0.32499999999999996      0.35                     -0.0017739423740267823   1
-0.275                    0.35                     -0.0017338238484495005   1
-0.22499999999999998      0.35                     -0.001616355893114152    1
-0.17500000000000004      0.35                     -0.001435315210082777    1
-0.12500000000000006      0.35                     -0.0011419430072152625   1
-0.07500000000000001      0.35                     -8.319397124854078E-4    1
-0.025000000000000022     0.35                     4.053679380366937E-5     1
0.024999999999999967      0.35                     0.06103153537350847      1
0.07500000000000007       0.35                     0.0806620670402558       1
0.125                     0.35                     0.05680825321307381      1
0.17500000000000004       0.35                     0.045283917205889423     1
0.22499999999999998       0.35                     0.22002069840946226      1
0.275                     0.35                     0.27123376223438456      1
0.32500000000000007       0.35                     0.2560486844495573       1
0.375                     0.35                     0.3864015600863091       1
0.42500000000000004       0.35                     0.726042816122145        1
0.4750000000000001        0.35                     1.351419874197382        1
0.5249999999999999        0.35                     1.0974486273495137       1
0.575                     0.35                     1.1736025908627674       1
0.625                     0.35                     1.5288819505173377       1
0.6749999999999998        0.35                     1.4666950333138526       1
0.7250000000000001        0.35                     1.539039785174709        1
0.7749999999999999        0.35                     1.5796801447063125       1
0.8250000000000002        0.35                     1.6187819112562494       1
0.875                     0.35                     1.642140192032933        1
0.9249999999999999        0.35                     1.682137859088746        1
0.9749999999999999        0.35                     1.738884963302624        1
1.025                     0.35                     1.7453758756245321       1
1.075                     0.35                     1.7451177615422941       1
1.125                     0.35                     1.7408328597831475       1
1.175                     0.35                     1.7364204947988666       1
1.2249999999999996        0.35                     1.753737204244585        1
1.275                     0.35                     1.743838205369431        1
1.3250000000000002        0.35                     1.7372431080456925       1
1.375                     0.35                     1.7347138902520314       1
1.4249999999999998        0.35                     1.7288839500628395       1
1.475                     0.35                     1.7302794312883298       1
1.5250000000000004        0.35                     1.724306705600716        1
1.575                     0.35                     1.7159038119768688       1
1.625                     0.35                     1.722132209210284        1
1.675                     0.35                     1.7213752914249527       1
1.725                     0.35                     1.7178388699707998       1
1.775                     0.35                     1.705518183283315        1
1.8250000000000002        0.35                     1.7032838374857704       1
1.8749999999999998        0.35                     1.7010494916882384       1
1.925                     0.35                     1.7104142258907276       1
1.975                     0.35                     1.7073125272376635       1
2.025                     0.35                     1.706109351274247        1
2.0749999999999997        0.35                     1.6972649990295086       1
2.1250000000000004        0.35                     1.6932045094341635       1
2.1750000000000003        0.35                     1.6946605834691375       1
2.225                     0.35                     1.6961166575041147       1
2.275                     0.35                     1.6932319896802976       1
2.3249999999999993        0.35                     1.6913399150908726       1
2.375                     0.35                     1.6936618030431716       1
2.425                     0.35                     1.6904188033743508       1
2.4749999999999996        0.35                     1.6908541503689256       1
2.5250000000000004        0.35                     1.685537727766219        1
2.575                     0.35                     1.6852591657138092       1
2.625                     0.35                     1.6849806036613968       1
2.675                     0.35                     1.6847020416089877       1
2.7249999999999996        0.35                     1.6832139050633774       1
2.7750000000000004        0.35                     1.6824629081601286       1
2.825                     0.35                     1.6819736461375774       1
2.875                     0.35                     1.6795285643931006       1
2.9250000000000007        0.35                     1.679082495007192        1
2.975                     0.35                     1.6782963423720827       1
3.025                     0.35                     1.6821492227803487       1
3.0749999999999997        0.35                     1.6818660922410822       1
3.1249999999999996        0.35                     1.6766063362850012       1
3.1750000000000003        0.35                     1.6741568970320813       1
3.225                     0.35                     1.6761621466688883       1
3.275                     0.35                     1.6749771219698504       1
3.3249999999999997        0.35                     1.675167278721955        1
3.3750000000000004        0.35                     1.6741045668901837       1
3.4250000000000003        0.35                     1.673999525236621        1
3.475                     0.35                     1.673935841761869        1