% Model:              nc_magnet_1.mph
% Version:            COMSOL 6.2.0.415
% Date:               Feb 3 2025, 10:40
% Dimension:          2
% Nodes:              3000
% Expressions:        2
% Description:        Point
% cpl5x                   cpl5y                    Magnetic flux density, z-component Radius
-0.475                    0.05                     -1.485843166967593E-4    1
-0.425                    0.05                     -5.13634306774673E-4     1
-0.375                    0.05                     -9.641897252597809E-4    1
-0.32499999999999996      0.05                     -0.0013937558534937722   1
-0.275                    0.05                     -0.0018225058731418794   1
-0.22499999999999998      0.05                     -0.002310044087688423    1
-0.17500000000000004      0.05                     -0.002863553523616607    1
-0.12500000000000006      0.05                     -0.003437202583023602    1
-0.07500000000000001      0.05                     -0.003918762555789712    1
-0.025000000000000022     0.05                     -0.00432440714968263     1
0.024999999999999967      0.05                     -0.008244996579122699    1
0.07500000000000007       0.05                     -0.015144161029668757    1
0.125                     0.05                     -0.022222319676944657    1
0.17500000000000004       0.05                     -0.028340947898031654    1
0.22499999999999998       0.05                     -0.0335387363964843      1
0.275                     0.05                     -0.039380066840729006    1
0.32500000000000007       0.05                     -0.043760850282425476    1
0.375                     0.05                     -0.05020309507067075     1
0.42500000000000004       0.05                     -0.055101830522965134    1
0.4750000000000001        0.05                     -0.05948128351510551     1
0.5249999999999999        0.05                     -0.06238971323729481     1
0.575                     0.05                     -0.06611215653710756     1
0.625                     0.05                     -0.0691729612110048      1
0.6749999999999998        0.05                     -0.07135965937043842     1
0.7250000000000001        0.05                     -0.07354635752987448     1
0.7749999999999999        0.05                     -0.0757330556893141      1
0.8250000000000002        0.05                     -0.07708473909196067     1
0.875                     0.05                     -0.07730937591185116     1
0.9249999999999999        0.05                     -0.07920619996863043     1
0.9749999999999999        0.05                     -0.08018336073832533     1
1.025                     0.05                     -0.08116052150802289     1
1.075                     0.05                     -0.0801677590956078      1
1.125                     0.05                     -0.08098267522862213     1
1.175                     0.05                     -0.08087762775631957     1
1.2249999999999996        0.05                     -0.08088335647655676     1
1.275                     0.05                     -0.0803560040456257      1
1.3250000000000002        0.05                     -0.07982865161469443     1
1.375                     0.05                     -0.07930129918376116     1
1.4249999999999998        0.05                     -0.07888132302723977     1
1.475                     0.05                     -0.07833968876060737     1
1.5250000000000004        0.05                     -0.07778095059899348     1
1.575                     0.05                     -0.07688617166731548     1
1.625                     0.05                     -0.07555077361411694     1
1.675                     0.05                     -0.07416755999092711     1
1.725                     0.05                     -0.07250247262840803     1
1.775                     0.05                     -0.07083738526588768     1
1.8250000000000002        0.05                     -0.07002497062908741     1
1.8749999999999998        0.05                     -0.06789950458202665     1
1.925                     0.05                     -0.06656236180865249     1
1.975                     0.05                     -0.06528234686347245     1
2.025                     0.05                     -0.06355330304332707     1
2.0749999999999997        0.05                     -0.0618242592231808      1
2.1250000000000004        0.05                     -0.06034618819498026     1
2.1750000000000003        0.05                     -0.05934749774115988     1
2.225                     0.05                     -0.05834880728733971     1
2.275                     0.05                     -0.05582448466484724     1
2.3249999999999993        0.05                     -0.05349828960310943     1
2.375                     0.05                     -0.05117209454137184     1
2.425                     0.05                     -0.049618833555133024    1
2.4749999999999996        0.05                     -0.04789408632656128     1
2.5250000000000004        0.05                     -0.046807125770817026    1
2.575                     0.05                     -0.04572016521507227     1
2.625                     0.05                     -0.0442834357890996      1
2.675                     0.05                     -0.041780462587965694    1
2.7249999999999996        0.05                     -0.03927748938682929     1
2.7750000000000004        0.05                     -0.03677451618569394     1
2.825                     0.05                     -0.03544630788009928     1
2.875                     0.05                     -0.03358903515506362     1
2.9250000000000007        0.05                     -0.0315231645043792      1
2.975                     0.05                     -0.030581580220536142    1
3.025                     0.05                     -0.0296399959366922      1
3.0749999999999997        0.05                     -0.027950972255749718    1
3.1249999999999996        0.05                     -0.02567167575968403     1
3.1750000000000003        0.05                     -0.023392379263618646    1
3.225                     0.05                     -0.02145261954767111     1
3.275                     0.05                     -0.019485628854791104    1
3.3249999999999997        0.05                     -0.0173104943467543      1
3.3750000000000004        0.05                     -0.015135359838717388    1
3.4250000000000003        0.05                     -0.015102064972910334    1
3.475                     0.05                     -0.012784181789163546    1
3.525                     0.05                     -0.011349304184831155    1
3.5749999999999993        0.05                     -0.010210079359364993    1
3.625                     0.05                     -0.008523016088539226    1
3.675                     0.05                     -0.0067376642523283015   1
3.7249999999999996        0.05                     -0.005076061111862096    1
3.7750000000000004        0.05                     -0.003679705017669066    1
3.825                     0.05                     -0.002353341243618967    1
3.875                     0.05                     -0.0010935950701269626   1
3.925                     0.05                     4.623245729866998E-4     1
3.9749999999999996        0.05                     0.001958432542310158     1
4.0249999999999995        0.05                     0.00269735154934736      1
4.074999999999999         0.05                     0.0026273939825129933    1
4.125000000000001         0.05                     0.002415343890144764     1
4.175000000000001         0.05                     0.0021631965107711815    1
4.225                     0.05                     0.0018441545823169037    1
4.2749999999999995        0.05                     0.0015271908330690143    1
4.325                     0.05                     0.001138164035636935     1
4.375                     0.05                     8.068831458791781E-4     1
4.425                     0.05                     4.642580475213709E-4     1
4.475                     0.05                     1.2120051719502478E-4    1
-0.475                    0.15000000000000002      -1.4858431669673156E-4   1
-0.425                    0.15000000000000002      -5.459348247383033E-4    1
-0.375                    0.15000000000000002      -8.168548563980416E-4    1
-0.32499999999999996      0.15000000000000002      -0.001326077568799544    1
-0.275                    0.15000000000000002      -0.001825992154236511    1
-0.22499999999999998      0.15000000000000002      -0.002345684483295224    1
-0.17500000000000004      0.15000000000000002      -0.0029327828617011775   1
-0.12500000000000006      0.15000000000000002      -0.0036060139602139274   1
-0.07500000000000001      0.15000000000000002      -0.0042594200613876865   1
-0.025000000000000022     0.15000000000000002      -0.004720867280765262    1
0.024999999999999967      0.15000000000000002      -0.008926907233966684    1
0.07500000000000007       0.15000000000000002      -0.015941154672009183    1
0.125                     0.15000000000000002      -0.022754659331001292    1
0.17500000000000004       0.15000000000000002      -0.029392734906492635    1
0.22499999999999998       0.15000000000000002      -0.03635974974860856     1
0.275                     0.15000000000000002      -0.041287362700850316    1
0.32500000000000007       0.15000000000000002      -0.04598188271581871     1
0.375                     0.15000000000000002      -0.049623499201737475    1
0.42500000000000004       0.15000000000000002      -0.05292863472349024     1
0.4750000000000001        0.15000000000000002      -0.05924868287399998     1
0.5249999999999999        0.15000000000000002      -0.0632564019577887      1
0.575                     0.15000000000000002      -0.06649869952142096     1
0.625                     0.15000000000000002      -0.0692950299726523      1
0.6749999999999998        0.15000000000000002      -0.0717316270817836      1
0.7250000000000001        0.15000000000000002      -0.07403792403506149     1
0.7749999999999999        0.15000000000000002      -0.07574789209478539     1
0.8250000000000002        0.15000000000000002      -0.07694053471301565     1
0.875                     0.15000000000000002      -0.0773688499363061      1
0.9249999999999999        0.15000000000000002      -0.07970073314753373     1
0.9749999999999999        0.15000000000000002      -0.08034167883869792     1
1.025                     0.15000000000000002      -0.08090668539396084     1
1.075                     0.15000000000000002      -0.08147169194922022     1
1.125                     0.15000000000000002      -0.08175667948408005     1
1.175                     0.15000000000000002      -0.08173416920001486     1
1.2249999999999996        0.15000000000000002      -0.0812150607916946      1
1.275                     0.15000000000000002      -0.08085637019128056     1
1.3250000000000002        0.15000000000000002      -0.08060636060632298     1
1.375                     0.15000000000000002      -0.07952556669441424     1
1.4249999999999998        0.15000000000000002      -0.07871406711806905     1
1.475                     0.15000000000000002      -0.07732112004971015     1
1.5250000000000004        0.15000000000000002      -0.07672014946304495     1
1.575                     0.15000000000000002      -0.07507338177812617     1
1.625                     0.15000000000000002      -0.0738871942862862      1
1.675                     0.15000000000000002      -0.07255368367880813     1
1.725                     0.15000000000000002      -0.06838692543575231     1
1.775                     0.15000000000000002      -0.06876489856473489     1
1.8250000000000002        0.15000000000000002      -0.06802802074593406     1
1.8749999999999998        0.15000000000000002      -0.06684898567206482     1
1.925                     0.15000000000000002      -0.06550192313798409     1
1.975                     0.15000000000000002      -0.06415486060390396     1
2.025                     0.15000000000000002      -0.06280779806982117     1
2.0749999999999997        0.15000000000000002      -0.06146377769152389     1
2.1250000000000004        0.15000000000000002      -0.05910005570149757     1
2.1750000000000003        0.15000000000000002      -0.05810136524767784     1
2.225                     0.15000000000000002      -0.0557222209912554      1
2.275                     0.15000000000000002      -0.054518094165906694    1
2.3249999999999993        0.15000000000000002      -0.05274950207341478     1
2.375                     0.15000000000000002      -0.05098090998092164     1
2.425                     0.15000000000000002      -0.04921231788842917     1
2.4749999999999996        0.15000000000000002      -0.047443725795935865    1
2.5250000000000004        0.15000000000000002      -0.045600908810749824    1
2.575                     0.15000000000000002      -0.04451394825500554     1
2.625                     0.15000000000000002      -0.04190111189802881     1
2.675                     0.15000000000000002      -0.040852227449218126    1
2.7249999999999996        0.15000000000000002      -0.03893213221692987     1
2.7750000000000004        0.15000000000000002      -0.03701203698464117     1
2.825                     0.15000000000000002      -0.03509194175235396     1
2.875                     0.15000000000000002      -0.033210955748745       1
2.9250000000000007        0.15000000000000002      -0.031335187334241565    1
2.975                     0.15000000000000002      -0.0294594189197408      1
3.025                     0.15000000000000002      -0.027583650505237145    1
3.0749999999999997        0.15000000000000002      -0.02690453082922331     1
3.1249999999999996        0.15000000000000002      -0.02462523433315733     1
3.1750000000000003        0.15000000000000002      -0.022805196867707822    1
3.225                     0.15000000000000002      -0.020722743694474077    1
3.275                     0.15000000000000002      -0.01911340841492415     1
3.3249999999999997        0.15000000000000002      -0.018022383341713077    1
3.3750000000000004        0.15000000000000002      -0.01637693824338725     1
3.4250000000000003        0.15000000000000002      -0.01479939654937068     1
3.475                     0.15000000000000002      -0.01322185485535421     1
3.525                     0.15000000000000002      -0.011858507446854627    1
3.5749999999999993        0.15000000000000002      -0.01017144417602904     1
3.625                     0.15000000000000002      -0.00850896220195474     1
3.675                     0.15000000000000002      -0.006793477864819986    1
3.7249999999999996        0.15000000000000002      -0.005077993527683566    1
3.7750000000000004        0.15000000000000002      -0.0037387847069747515   1
3.825                     0.15000000000000002      -0.002342928508580311    1
3.875                     0.15000000000000002      -9.114976648083029E-4    1
3.925                     0.15000000000000002      5.691031893055865E-4     1
3.9749999999999996        0.15000000000000002      0.0020312294678399567    1
4.0249999999999995        0.15000000000000002      0.0027216537889103165    1
4.074999999999999         0.15000000000000002      0.0026452875930740305    1
4.125000000000001         0.15000000000000002      0.0024595928337245443    1
4.175000000000001         0.15000000000000002      0.002183951076450752     1
4.225                     0.15000000000000002      0.0018195225066181542    1
4.2749999999999995        0.15000000000000002      0.0016041817655989554    1
4.325                     0.15000000000000002      0.00115029305470693      1
4.375                     0.15000000000000002      6.964043438153489E-4     1
4.425                     0.15000000000000002      4.8603201291463893E-4    1
4.475                     0.15000000000000002      1.2120051719502478E-4    1
-0.475                    0.25                     -8.865677081868611E-5    1
-0.425                    0.25                     -3.550092731923471E-4    1
-0.375                    0.25                     -7.49608794783363E-4     1
-0.32499999999999996      0.25                     -0.001151458100279612    1
-0.275                    0.25                     -0.001553307405774057    1
-0.22499999999999998      0.25                     -0.0020783081325614905   1
-0.17500000000000004      0.25                     -0.0026429384091988736   1
-0.12500000000000006      0.25                     -0.0035953790310096767   1
-0.07500000000000001      0.25                     -0.004745412963662104    1
-0.025000000000000022     0.25                     -0.006151450777053924    1
0.024999999999999967      0.25                     -0.011461658432015298    1
0.07500000000000007       0.25                     -0.018773614895620128    1
0.125                     0.25                     -0.02497714239006754     1
0.17500000000000004       0.25                     -0.030925360530495993    1
0.22499999999999998       0.25                     -0.036901892524587865    1
0.275                     0.25                     -0.04200038475623025     1
0.32500000000000007       0.25                     -0.04670201471388413     1
0.375                     0.25                     -0.051713722657890315    1
0.42500000000000004       0.25                     -0.05578093768709991     1
0.4750000000000001        0.25                     -0.05943503550892615     1
0.5249999999999999        0.25                     -0.06289919082820816     1
0.575                     0.25                     -0.06556639540585617     1
0.625                     0.25                     -0.06871364253871093     1
0.6749999999999998        0.25                     -0.07130900943895391     1
0.7250000000000001        0.25                     -0.07366010682409674     1
0.7749999999999999        0.25                     -0.0759302380483382      1
0.8250000000000002        0.25                     -0.07743969443428256     1
0.875                     0.25                     -0.07875906547904132     1
0.9249999999999999        0.25                     -0.08012712020763901     1
0.9749999999999999        0.25                     -0.08068378450364655     1
1.025                     0.25                     -0.08085120019350622     1
1.075                     0.25                     -0.0813822628181382      1
1.125                     0.25                     -0.08145338484882547     1
1.175                     0.25                     -0.08121397303260203     1
1.2249999999999996        0.25                     -0.08056179692779786     1
1.275                     0.25                     -0.08050348863212342     1
1.3250000000000002        0.25                     -0.07965904786287759     1
1.375                     0.25                     -0.07930437838086091     1
1.4249999999999998        0.25                     -0.0789664571919193      1
1.475                     0.25                     -0.07752156792544118     1
1.5250000000000004        0.25                     -0.07636700881766245     1
1.575                     0.25                     -0.07514305377059571     1
1.625                     0.25                     -0.07331226171690997     1
1.675                     0.25                     -0.07287736020766644     1
1.725                     0.25                     -0.07145689504539954     1
1.775                     0.25                     -0.0686846665754608      1
1.8250000000000002        0.25                     -0.06748321280472336     1
1.8749999999999998        0.25                     -0.06554081293214842     1
1.925                     0.25                     -0.06363370801342993     1
1.975                     0.25                     -0.06161566839338484     1
2.025                     0.25                     -0.05959762877333574     1
2.0749999999999997        0.25                     -0.05757958915329198     1
2.1250000000000004        0.25                     -0.05892784340309465     1
2.1750000000000003        0.25                     -0.05604988825611967     1
2.225                     0.25                     -0.05467545433309695     1
2.275                     0.25                     -0.05330102041007567     1
2.3249999999999993        0.25                     -0.05192658648705617     1
2.375                     0.25                     -0.050552152564034       1
2.425                     0.25                     -0.04917771864101361     1
2.4749999999999996        0.25                     -0.04780328471799322     1
2.5250000000000004        0.25                     -0.04514315749112541     1
2.575                     0.25                     -0.042324310363205164    1
2.625                     0.25                     -0.04057517424649326     1
2.675                     0.25                     -0.03915440840558304     1
2.7249999999999996        0.25                     -0.03773364256467371     1
2.7750000000000004        0.25                     -0.03631287672376704     1
2.825                     0.25                     -0.03489211088285771     1
2.875                     0.25                     -0.03294111930659116     1
2.9250000000000007        0.25                     -0.03184200880786259     1
2.975                     0.25                     -0.030315157025932724    1
3.025                     0.25                     -0.026859863021120436    1
3.0749999999999997        0.25                     -0.026478853109776185    1
3.1249999999999996        0.25                     -0.024866189504372027    1
3.1750000000000003        0.25                     -0.02270459551870585     1
3.225                     0.25                     -0.020426608275775415    1
3.275                     0.25                     -0.019095720119879256    1
3.3249999999999997        0.25                     -0.017749928152282796    1
3.3750000000000004        0.25                     -0.016434273476912287    1
3.4250000000000003        0.25                     -0.01511861880154175     1
3.475                     0.25                     -0.013802964126169215    1
3.525                     0.25                     -0.01141272389116077     1
3.5749999999999993        0.25                     -0.010169385989386902    1
3.625                     0.25                     -0.008386129335129056    1
3.675                     0.25                     -0.006456922649634933    1
3.7249999999999996        0.25                     -0.004660659303518777    1
3.7750000000000004        0.25                     -0.0036491804142206874   1
3.825                     0.25                     -0.0022007721988330786   1
3.875                     0.25                     -8.813262875051464E-4    1
3.925                     0.25                     6.422544031901012E-4     1
3.9749999999999996        0.25                     0.0020689726123821472    1
4.0249999999999995        0.25                     0.002742171317438924     1
4.074999999999999         0.25                     0.002656691633674768     1
4.125000000000001         0.25                     0.0024551637671850757    1
4.175000000000001         0.25                     0.0022148683962406324    1
4.225                     0.25                     0.0018928300651577246    1
4.2749999999999995        0.25                     0.0015707917340668232    1
4.325                     0.25                     0.0012065282962320234    1
4.375                     0.25                     8.226173453969032E-4     1
4.425                     0.25                     4.3870639455967364E-4    1
4.475                     0.25                     8.253501828514587E-5     1
-0.475                    0.35                     -8.865677081868611E-5    1
-0.425                    0.35                     -2.659703124560653E-4    1
-0.375                    0.35                     -5.257911775746749E-4    1
-0.32499999999999996      0.35                     -7.835679461398737E-4    1
-0.275                    0.35                     -0.001081412732102438    1
-0.22499999999999998      0.35                     -0.001445224798026612    1
-0.17500000000000004      0.35                     -0.0018378919446900843   1
-0.12500000000000006      0.35                     -0.0023055899821440295   1
-0.07500000000000001      0.35                     -0.0031184555304824      1
-0.025000000000000022     0.35                     -0.003628828183430244    1
0.024999999999999967      0.35                     -0.0027217866037316796   1
0.07500000000000007       0.35                     -0.0019077003673061421   1
0.125                     0.35                     -0.0016955622024716899   1
0.17500000000000004       0.35                     -0.0016579840569366233   1
0.22499999999999998       0.35                     -0.0016475501453463437   1
0.275                     0.35                     -0.0016330258676333642   1
0.32500000000000007       0.35                     -0.048500515331475036    1
0.375                     0.35                     -0.0531206638912618      1
0.42500000000000004       0.35                     -0.05686992121826151     1
0.4750000000000001        0.35                     -0.06077871008284319     1
0.5249999999999999        0.35                     -0.0642819500199292      1
0.575                     0.35                     -0.0674989083812143      1
0.625                     0.35                     -0.0703285225639263      1
0.6749999999999998        0.35                     -0.07209717003699723     1
0.7250000000000001        0.35                     -0.0745330800594024      1
0.7749999999999999        0.35                     -0.07638490080420723     1
0.8250000000000002        0.35                     -0.07759788274858881     1
0.875                     0.35                     -0.07877516399802564     1
0.9249999999999999        0.35                     -0.08011193285495288     1
0.9749999999999999        0.35                     -0.0805422981339925      1
1.025                     0.35                     -0.08079362571772819     1
1.075                     0.35                     -0.08139295664823543     1
1.125                     0.35                     -0.08159638976540595     1
1.175                     0.35                     -0.08138255956243867     1
1.2249999999999996        0.35                     -0.08108969835117996     1
1.275                     0.35                     -0.08048316919312093     1
1.3250000000000002        0.35                     -0.0797409347883209      1
1.375                     0.35                     -0.07937414772063445     1
1.4249999999999998        0.35                     -0.07851631997889752     1
1.475                     0.35                     -0.07747683847291342     1
1.5250000000000004        0.35                     -0.07637384432223068     1
1.575                     0.35                     -0.07473474268331337     1
1.625                     0.35                     -0.07357841808094001     1
1.675                     0.35                     -0.0720846784178768      1
1.725                     0.35                     -0.07099746482790881     1
1.775                     0.35                     -0.06978715514533285     1
1.8250000000000002        0.35                     -0.06852644002513708     1
1.8749999999999998        0.35                     -0.06712856039797277     1
1.925                     0.35                     -0.06532043083092054     1
1.975                     0.35                     -0.06399315606624967     1
2.025                     0.35                     -0.06227262467746719     1
2.0749999999999997        0.35                     -0.06063349238715432     1
2.1250000000000004        0.35                     -0.058731967376631555    1
2.1750000000000003        0.35                     -0.05733052647516612     1
2.225                     0.35                     -0.05532656149438475     1
2.275                     0.35                     -0.053696830872100865    1
2.3249999999999993        0.35                     -0.0514316053584678      1
2.375                     0.35                     -0.04916637984483074     1
2.425                     0.35                     -0.048516781943394705    1
2.4749999999999996        0.35                     -0.04671761176083056     1
2.5250000000000004        0.35                     -0.04476787426309692     1
2.575                     0.35                     -0.04323232456609061     1
2.625                     0.35                     -0.04154493894119726     1
2.675                     0.35                     -0.04004376611712068     1
2.7249999999999996        0.35                     -0.03793660148012723     1
2.7750000000000004        0.35                     -0.035934577180990246    1
2.825                     0.35                     -0.033769003229287664    1
2.875                     0.35                     -0.03257378026931024     1
2.9250000000000007        0.35                     -0.031160500299862504    1
2.975                     0.35                     -0.028757091318101946    1
3.025                     0.35                     -0.027695477190420092    1
3.0749999999999997        0.35                     -0.025491779425841243    1
3.1249999999999996        0.35                     -0.02462279983184157     1
3.1750000000000003        0.35                     -0.022683844670098097    1
3.225                     0.35                     -0.02074488950835285     1
3.275                     0.35                     -0.018908513817667227    1
3.3249999999999997        0.35                     -0.017490053667123695    1
3.3750000000000004        0.35                     -0.01604954018753979     1
3.4250000000000003        0.35                     -0.014029194989526594    1
3.475                     0.35                     -0.012774862640295037    1