% Model:              nc_magnet_1.mph
% Version:            COMSOL 6.2.0.415
% Date:               Feb 3 2025, 10:33
% Dimension:          2
% Nodes:              3000
% Expressions:        2
% Description:        Point
% cpl3x                   cpl3y                    Magnetic flux density, x-component Radius
-0.475                    0.05000000000000001      1.322645457803029E-4     1
-0.425                    0.05000000000000001      9.839744126649563E-5     1
-0.375                    0.05000000000000001      1.1267813085025224E-5    1
-0.32499999999999996      0.05000000000000001      7.52270219459561E-5      1
-0.275                    0.05000000000000001      1.0347952769151902E-4    1
-0.22499999999999998      0.05000000000000001      1.2369218365670953E-4    1
-0.17500000000000004      0.05000000000000001      8.844819255182657E-5     1
-0.12500000000000006      0.05000000000000001      9.697087095439372E-5     1
-0.07500000000000001      0.05000000000000001      7.526572345439853E-5     1
-0.025000000000000022     0.05000000000000001      2.9322938969400525E-5    1
0.024999999999999967      0.05000000000000001      4.4730864448813256E-4    1
0.07500000000000007       0.05000000000000001      6.542546669923155E-4     1
0.125                     0.05000000000000001      4.510766322951554E-4     1
0.17500000000000004       0.05000000000000001      4.7424491485870135E-4    1
0.22499999999999998       0.05000000000000001      4.3938026420708987E-4    1
0.275                     0.05000000000000001      4.3938026420708987E-4    1
0.32500000000000007       0.05000000000000001      -2.528488844966148E-4    1
0.375                     0.05000000000000001      1.119257639228266E-4     1
0.42500000000000004       0.05000000000000001      1.736731781889489E-4     1
0.4750000000000001        0.05000000000000001      1.736731781889489E-4     1
0.5249999999999999        0.05000000000000001      -3.1807464638622385E-4   1
0.575                     0.05000000000000001      -7.265945483769798E-5    1
0.625                     0.05000000000000001      -9.582206380365221E-5    1
0.6749999999999998        0.05000000000000001      -2.3173032585610542E-4   1
0.7250000000000001        0.05000000000000001      -2.3173032585610542E-4   1
0.7749999999999999        0.05000000000000001      -4.400537754927214E-4    1
0.8250000000000002        0.05000000000000001      -1.7277940940552128E-4   1
0.875                     0.05000000000000001      1.8229282450210604E-5    1
0.9249999999999999        0.05000000000000001      -3.399083078647891E-5    1
0.9749999999999999        0.05000000000000001      -1.5582554657522785E-4   1
1.025                     0.05000000000000001      -1.558255465754499E-4    1
1.075                     0.05000000000000001      -3.1562601647805444E-4   1
1.125                     0.05000000000000001      -3.1562601647761035E-4   1
1.175                     0.05000000000000001      -3.1562601647772137E-4   1
1.2249999999999996        0.05000000000000001      -3.894604546705871E-4    1
1.275                     0.05000000000000001      -4.829519911357938E-4    1
1.3250000000000002        0.05000000000000001      -6.14255956468579E-4     1
1.375                     0.05000000000000001      -2.037192364952034E-4    1
1.4249999999999998        0.05000000000000001      -2.037192364952034E-4    1
1.475                     0.05000000000000001      -2.0371923649475931E-4   1
1.5250000000000004        0.05000000000000001      -3.962047289043369E-4    1
1.575                     0.05000000000000001      -0.0013382290358450177   1
1.625                     0.05000000000000001      0.001310294116318722     1
1.675                     0.05000000000000001      -7.197674217351846E-4    1
1.725                     0.05000000000000001      4.313708580561126E-6     1
1.775                     0.05000000000000001      4.313708580561126E-6     1
1.8250000000000002        0.05000000000000001      4.313708580561126E-6     1
1.8749999999999998        0.05000000000000001      4.313708580561126E-6     1
1.925                     0.05000000000000001      1.7689395603781577E-4    1
1.975                     0.05000000000000001      4.5189990718697004E-4    1
2.025                     0.05000000000000001      -4.016355648510661E-4    1
2.0749999999999997        0.05000000000000001      7.50999696423893E-5      1
2.1250000000000004        0.05000000000000001      7.509996964283339E-5     1
2.1750000000000003        0.05000000000000001      7.50999696423893E-5      1
2.225                     0.05000000000000001      7.509996964283339E-5     1
2.275                     0.05000000000000001      7.509996964305543E-5     1
2.3249999999999993        0.05000000000000001      -4.4075750396438407E-4   1
2.375                     0.05000000000000001      0.0015868614625198507    1
2.425                     0.05000000000000001      2.423197833443247E-4     1
2.4749999999999996        0.05000000000000001      2.4231978334410265E-4    1
2.5250000000000004        0.05000000000000001      2.4231978334454674E-4    1
2.575                     0.05000000000000001      2.4231978334476878E-4    1
2.625                     0.05000000000000001      2.423197833443247E-4     1
2.675                     0.05000000000000001      2.423197833443247E-4     1
2.7249999999999996        0.05000000000000001      -3.477532454467802E-4    1
2.7750000000000004        0.05000000000000001      0.0016777031234808115    1
2.825                     0.05000000000000001      8.674059830116043E-4     1
2.875                     0.05000000000000001      0.001403388584814369     1
2.9250000000000007        0.05000000000000001      3.541538926209453E-4     1
2.975                     0.05000000000000001      3.5415389262061225E-4    1
3.025                     0.05000000000000001      3.5415389262050123E-4    1
3.0749999999999997        0.05000000000000001      3.541538926207233E-4     1
3.1249999999999996        0.05000000000000001      3.541538926208343E-4     1
3.1750000000000003        0.05000000000000001      5.064122211136113E-5     1
3.225                     0.05000000000000001      0.0011853940794904205    1
3.275                     0.05000000000000001      -2.4595874389460315E-4   1
3.3249999999999997        0.05000000000000001      6.757760868170148E-5     1
3.3750000000000004        0.05000000000000001      1.1233493369761094E-4    1
3.4250000000000003        0.05000000000000001      1.1233493369761094E-4    1
3.475                     0.05000000000000001      -1.3131115394926507E-4   1
3.525                     0.05000000000000001      -1.4892501360430632E-4   1
3.5749999999999993        0.05000000000000001      8.839103445401619E-5     1
3.625                     0.05000000000000001      8.839103445401619E-5     1
3.675                     0.05000000000000001      1.2884184216160888E-4    1
3.7249999999999996        0.05000000000000001      3.570521776824487E-5     1
3.7750000000000004        0.05000000000000001      6.847274793742031E-5     1
3.825                     0.05000000000000001      3.844490600228845E-4     1
3.875                     0.05000000000000001      1.949148747577567E-4     1
3.925                     0.05000000000000001      1.5847397153656573E-4    1
3.9749999999999996        0.05000000000000001      2.0599845140362172E-4    1
4.0249999999999995        0.05000000000000001      8.760423688691787E-7     1
4.074999999999999         0.05000000000000001      2.693066365466734E-6     1
4.125000000000001         0.05000000000000001      6.488008732485895E-6     1
4.175000000000001         0.05000000000000001      -2.4159504228293827E-6   1
4.225                     0.05000000000000001      1.961932286420609E-5     1
4.2749999999999995        0.05000000000000001      8.17086936422129E-6      1
4.325                     0.05000000000000001      1.4848674081857638E-5    1
4.375                     0.05000000000000001      -5.823148861444985E-5    1
4.425                     0.05000000000000001      1.968498069826463E-5     1
4.475                     0.05000000000000001      1.968498069826463E-5     1
-0.475                    0.15000000000000002      2.3962152305391504E-4    1
-0.425                    0.15000000000000002      2.4044476485007849E-4    1
-0.375                    0.15000000000000002      2.633831949619275E-4     1
-0.32499999999999996      0.15000000000000002      2.831637157274386E-4     1
-0.275                    0.15000000000000002      2.679032518092539E-4     1
-0.22499999999999998      0.15000000000000002      3.6774223299074205E-4    1
-0.17500000000000004      0.15000000000000002      3.906974079059822E-4     1
-0.12500000000000006      0.15000000000000002      3.5046430961382935E-4    1
-0.07500000000000001      0.15000000000000002      2.750477608248758E-4     1
-0.025000000000000022     0.15000000000000002      1.1013600335729734E-4    1
0.024999999999999967      0.15000000000000002      0.0024039725765963027    1
0.07500000000000007       0.15000000000000002      0.002032612168856307     1
0.125                     0.15000000000000002      0.0015124130265222746    1
0.17500000000000004       0.15000000000000002      0.0012520844881382942    1
0.22499999999999998       0.15000000000000002      9.917559497614192E-4     1
0.275                     0.15000000000000002      9.669873709809984E-4     1
0.32500000000000007       0.15000000000000002      4.954637088907532E-4     1
0.375                     0.15000000000000002      2.4728434009091416E-4    1
0.42500000000000004       0.15000000000000002      1.0572844349038268E-4    1
0.4750000000000001        0.15000000000000002      5.057220802173745E-5     1
0.5249999999999999        0.15000000000000002      -1.0789774756753134E-4   1
0.575                     0.15000000000000002      -4.2028246310781697E-4   1
0.625                     0.15000000000000002      -7.193361501022302E-4    1
0.6749999999999998        0.15000000000000002      -5.662368720833477E-4    1
0.7250000000000001        0.15000000000000002      -6.592574200199319E-4    1
0.7749999999999999        0.15000000000000002      -9.106046863252004E-4    1
0.8250000000000002        0.15000000000000002      -9.346041119349113E-4    1
0.875                     0.15000000000000002      -7.205063922191002E-4    1
0.9249999999999999        0.15000000000000002      -7.337533123752404E-4    1
0.9749999999999999        0.15000000000000002      -7.470002325304925E-4    1
1.025                     0.15000000000000002      -7.602471526833021E-4    1
1.075                     0.15000000000000002      -0.0010190671925744965   1
1.125                     0.15000000000000002      -9.911440334833266E-4    1
1.175                     0.15000000000000002      -9.632208744004833E-4    1
1.2249999999999996        0.15000000000000002      -9.352977153112008E-4    1
1.275                     0.15000000000000002      -9.073745562240276E-4    1
1.3250000000000002        0.15000000000000002      -9.766535378723518E-4    1
1.375                     0.15000000000000002      -5.434156976016347E-4    1
1.4249999999999998        0.15000000000000002      -7.365906962895075E-4    1
1.475                     0.15000000000000002      -9.115189076069896E-4    1
1.5250000000000004        0.15000000000000002      -9.511449248531534E-4    1
1.575                     0.15000000000000002      -6.724542751312956E-4    1
1.625                     0.15000000000000002      -6.329474762223342E-4    1
1.675                     0.15000000000000002      -8.822037309286213E-4    1
1.725                     0.15000000000000002      2.453803958879508E-5     1
1.775                     0.15000000000000002      2.7442350948647665E-5    1
1.8250000000000002        0.15000000000000002      -3.891643294708924E-4    1
1.8749999999999998        0.15000000000000002      -5.60687419895789E-4     1
1.925                     0.15000000000000002      -2.1501542524759998E-4   1
1.975                     0.15000000000000002      -3.704436237930153E-4    1
2.025                     0.15000000000000002      -1.9915176464235795E-4   1
2.0749999999999997        0.15000000000000002      -6.199907497594914E-5    1
2.1250000000000004        0.15000000000000002      1.3942158885860145E-4    1
2.1750000000000003        0.15000000000000002      1.553685047936959E-4     1
2.225                     0.15000000000000002      1.713154207285683E-4     1
2.275                     0.15000000000000002      1.1955349382564151E-4    1
2.3249999999999993        0.15000000000000002      1.9230565072781564E-4    1
2.375                     0.15000000000000002      2.6505780762924036E-4    1
2.425                     0.15000000000000002      -2.1863169487671558E-4   1
2.4749999999999996        0.15000000000000002      -2.1496127228187722E-4   1
2.5250000000000004        0.15000000000000002      4.5401300113590004E-4    1
2.575                     0.15000000000000002      4.6980284983422216E-4    1
2.625                     0.15000000000000002      4.8559269853098996E-4    1
2.675                     0.15000000000000002      2.650130700954101E-5     1
2.7249999999999996        0.15000000000000002      4.2385833967417685E-4    1
2.7750000000000004        0.15000000000000002      5.585493347279868E-4     1
2.825                     0.15000000000000002      2.3155520307631405E-4    1
2.875                     0.15000000000000002      2.7135050244786463E-4    1
2.9250000000000007        0.15000000000000002      6.123454243940341E-4     1
2.975                     0.15000000000000002      9.533403463408696E-4     1
3.025                     0.15000000000000002      7.89762922121344E-4      1
3.0749999999999997        0.15000000000000002      7.681497748039945E-4     1
3.1249999999999996        0.15000000000000002      3.9562382591282197E-4    1
3.1750000000000003        0.15000000000000002      3.5440071883249824E-4    1
3.225                     0.15000000000000002      5.304379293743916E-4     1
3.275                     0.15000000000000002      7.064751399157854E-4     1
3.3249999999999997        0.15000000000000002      2.3767557631182434E-4    1
3.3750000000000004        0.15000000000000002      5.451685195591582E-4     1
3.4250000000000003        0.15000000000000002      4.499446842824717E-4     1
3.475                     0.15000000000000002      4.119821667703111E-4     1
3.525                     0.15000000000000002      3.740196492554859E-4     1
3.5749999999999993        0.15000000000000002      1.1080980604130652E-4    1
3.625                     0.15000000000000002      5.204565902208191E-4     1
3.675                     0.15000000000000002      6.094232211809603E-4     1
3.7249999999999996        0.15000000000000002      4.5481499991617547E-4    1
3.7750000000000004        0.15000000000000002      4.573262908739162E-4     1
3.825                     0.15000000000000002      4.336989471447339E-4     1
3.875                     0.15000000000000002      5.511208511759236E-4     1
3.925                     0.15000000000000002      5.34613602420464E-4      1
3.9749999999999996        0.15000000000000002      6.035147313285111E-4     1
4.0249999999999995        0.15000000000000002      4.3048339585915335E-6    1
4.074999999999999         0.15000000000000002      1.0131366954824195E-5    1
4.125000000000001         0.15000000000000002      1.2387116731238379E-5    1
4.175000000000001         0.15000000000000002      2.0635357845799618E-5    1
4.225                     0.15000000000000002      2.499476759276753E-5     1
4.2749999999999995        0.15000000000000002      3.421955847482394E-5     1
4.325                     0.15000000000000002      2.0713356478463396E-5    1
4.375                     0.15000000000000002      2.7264695722672982E-5    1
4.425                     0.15000000000000002      2.1409436027696165E-5    1
4.475                     0.15000000000000002      7.73690847636838E-5      1
-0.475                    0.25                     3.0033411212526673E-4    1
-0.425                    0.25                     3.677928325862556E-4     1
-0.375                    0.25                     4.3525155304657837E-4    1
-0.32499999999999996      0.25                     5.026389026543954E-4     1
-0.275                    0.25                     5.645877635731544E-4     1
-0.22499999999999998      0.25                     6.659760303493467E-4     1
-0.17500000000000004      0.25                     8.140320682699098E-4     1
-0.12500000000000006      0.25                     9.849576148859285E-4     1
-0.07500000000000001      0.25                     9.494391620350484E-4     1
-0.025000000000000022     0.25                     5.575229876360055E-4     1
0.024999999999999967      0.25                     0.0045755085437159115    1
0.07500000000000007       0.25                     0.0034275492377863204    1
0.125                     0.25                     0.0022050436336370494    1
0.17500000000000004       0.25                     0.0015506163811078721    1
0.22499999999999998       0.25                     0.001284851812932697     1
0.275                     0.25                     0.0010305964225432486    1
0.32500000000000007       0.25                     8.166279485810612E-4     1
0.375                     0.25                     3.3083357301633143E-4    1
0.42500000000000004       0.25                     1.5849228497666346E-4    1
0.4750000000000001        0.25                     -3.22661318360673E-4     1
0.5249999999999999        0.25                     -2.7966148184838113E-4   1
0.575                     0.25                     -9.267612630434741E-4    1
0.625                     0.25                     -6.634400272842456E-4    1
0.6749999999999998        0.25                     -8.776839579311968E-4    1
0.7250000000000001        0.25                     -0.0012113053962625742   1
0.7749999999999999        0.25                     -9.85663535718162E-4     1
0.8250000000000002        0.25                     -0.0013288974198086834   1
0.875                     0.25                     -0.0014716146327256041   1
0.9249999999999999        0.25                     -0.0016584298770805361   1
0.9749999999999999        0.25                     -0.0015827574379394527   1
1.025                     0.25                     -0.0015273545700362767   1
1.075                     0.25                     -0.0014484373495484704   1
1.125                     0.25                     -0.0014618137700298517   1
1.175                     0.25                     -0.0015236159818197148   1
1.2249999999999996        0.25                     -0.0013796574912454673   1
1.275                     0.25                     -0.0014104903670020263   1
1.3250000000000002        0.25                     -0.0014067862660587238   1
1.375                     0.25                     -0.0013072746818814096   1
1.4249999999999998        0.25                     -0.001160274175124404    1
1.475                     0.25                     -0.0012149547787565496   1
1.5250000000000004        0.25                     -0.0014009526227463098   1
1.575                     0.25                     -0.001253727037520136    1
1.625                     0.25                     -0.0010425383509140573   1
1.675                     0.25                     -9.921488245581145E-4    1
1.725                     0.25                     -9.591897832255114E-4    1
1.775                     0.25                     -7.727750118724508E-4    1
1.8250000000000002        0.25                     -7.14086617480153E-4     1
1.8749999999999998        0.25                     -8.877385976051588E-4    1
1.925                     0.25                     -9.067216898233643E-4    1
1.975                     0.25                     -7.695690001538469E-4    1
2.025                     0.25                     -6.324163104878266E-4    1
2.0749999999999997        0.25                     -4.95263620822417E-4     1
2.1250000000000004        0.25                     -3.1465963211863013E-4   1
2.1750000000000003        0.25                     -3.80417135961153E-4     1
2.225                     0.25                     -4.85868209585405E-4     1
2.275                     0.25                     -4.152832620274438E-4    1
2.3249999999999993        0.25                     -3.4469831446060084E-4   1
2.375                     0.25                     6.619485584380413E-5     1
2.425                     0.25                     -2.480809739857648E-5    1
2.4749999999999996        0.25                     -2.604342120626768E-6    1
2.5250000000000004        0.25                     1.959941315621272E-5     1
2.575                     0.25                     4.2583945822805003E-4    1
2.625                     0.25                     2.554179621971908E-4     1
2.675                     0.25                     8.499646616666467E-5     1
2.7249999999999996        0.25                     1.942956835949139E-4     1
2.7750000000000004        0.25                     2.546704724240012E-4     1
2.825                     0.25                     3.4100966537631283E-4    1
2.875                     0.25                     4.273488583303314E-4     1
2.9250000000000007        0.25                     3.6745796319870294E-4    1
2.975                     0.25                     5.915342717343897E-4     1
3.025                     0.25                     5.970936392880599E-4     1
3.0749999999999997        0.25                     5.66528014866341E-4      1
3.1249999999999996        0.25                     5.632209424102363E-4     1
3.1750000000000003        0.25                     8.04284385481413E-4      1
3.225                     0.25                     5.517838730564328E-4     1
3.275                     0.25                     7.27143070854197E-4      1
3.3249999999999997        0.25                     7.97243933183367E-4      1
3.3750000000000004        0.25                     8.647633352367734E-4     1
3.4250000000000003        0.25                     8.867680617545282E-4     1
3.475                     0.25                     9.205469460049631E-4     1
3.525                     0.25                     9.229344408288043E-4     1
3.5749999999999993        0.25                     9.253219356519793E-4     1
3.625                     0.25                     7.296092436068768E-4     1
3.675                     0.25                     8.35661537539778E-4      1
3.7249999999999996        0.25                     9.417138314713469E-4     1
3.7750000000000004        0.25                     7.866469496011774E-4     1
3.825                     0.25                     0.0010259042312554811    1
3.875                     0.25                     9.89519511898962E-4      1
3.925                     0.25                     0.0010069571114668108    1
3.9749999999999996        0.25                     0.0010118268532322006    1
4.0249999999999995        0.25                     8.166040769808092E-6     1
4.074999999999999         0.25                     2.1231556220246972E-5    1
4.125000000000001         0.25                     3.218282335648581E-5     1
4.175000000000001         0.25                     3.6795552110779894E-5    1
4.225                     0.25                     3.853380282281549E-5     1
4.2749999999999995        0.25                     9.08055987647316E-5      1
4.325                     0.25                     6.812728053895434E-5     1
4.375                     0.25                     7.423506899684185E-5     1
4.425                     0.25                     8.034285745139869E-5     1
4.475                     0.25                     4.0948988872857583E-5    1
-0.475                    0.35000000000000003      4.4448471396221767E-4    1
-0.425                    0.35000000000000003      5.06867156782987E-4      1
-0.375                    0.35000000000000003      5.769274343695018E-4     1
-0.32499999999999996      0.35000000000000003      6.295492236243899E-4     1
-0.275                    0.35000000000000003      6.930638204205586E-4     1
-0.22499999999999998      0.35000000000000003      9.406442744630539E-4     1
-0.17500000000000004      0.35000000000000003      0.0011668624463956334    1
-0.12500000000000006      0.35000000000000003      0.0016888889463819723    1
-0.07500000000000001      0.35000000000000003      0.00218072149187698      1
-0.025000000000000022     0.35000000000000003      0.0033588647674078764    1
0.024999999999999967      0.35000000000000003      0.004327430407318755     1
0.07500000000000007       0.35000000000000003      0.004451184550332332     1
0.125                     0.35000000000000003      0.004444057074627139     1
0.17500000000000004       0.35000000000000003      0.004413049238833899     1
0.22499999999999998       0.35000000000000003      0.004379625409511867     1
0.275                     0.35000000000000003      0.0043457308233110226    1
0.32500000000000007       0.35000000000000003      4.3188354455736544E-4    1
0.375                     0.35000000000000003      9.038430562213762E-5     1
0.42500000000000004       0.35000000000000003      -3.0806431065122375E-4   1
0.4750000000000001        0.35000000000000003      -5.358416565022228E-4    1
0.5249999999999999        0.35000000000000003      -8.851526739368509E-4    1
0.575                     0.35000000000000003      -0.0010298672995956437   1
0.625                     0.35000000000000003      -0.001324521078588381    1
0.6749999999999998        0.35000000000000003      -0.001405573990506781    1
0.7250000000000001        0.35000000000000003      -0.0014277035977268149   1
0.7749999999999999        0.35000000000000003      -0.0015892465359996777   1
0.8250000000000002        0.35000000000000003      -0.0017110808884979178   1
0.875                     0.35000000000000003      -0.0018821890280593667   1
0.9249999999999999        0.35000000000000003      -0.0020029391339360103   1
0.9749999999999999        0.35000000000000003      -0.002032882778483458    1
1.025                     0.35000000000000003      -0.0020213486682401083   1
1.075                     0.35000000000000003      -0.0020231699983426638   1
1.125                     0.35000000000000003      -0.0019090986190777315   1
1.175                     0.35000000000000003      -0.002012504855067987    1
1.2249999999999996        0.35000000000000003      -0.0020430263398033555   1
1.275                     0.35000000000000003      -0.0024094081207515355   1
1.3250000000000002        0.35000000000000003      -0.001893530778229291    1
1.375                     0.35000000000000003      -0.0018265709108573613   1
1.4249999999999998        0.35000000000000003      -0.0017596110434938694   1
1.475                     0.35000000000000003      -0.001675431610867778    1
1.5250000000000004        0.35000000000000003      -0.001770481643951216    1
1.575                     0.35000000000000003      -0.0017160248847605253   1
1.625                     0.35000000000000003      -0.0015412139750468762   1
1.675                     0.35000000000000003      -0.0013932639788611922   1
1.725                     0.35000000000000003      -0.0014988442508752087   1
1.775                     0.35000000000000003      -0.001421938753258023    1
1.8250000000000002        0.35000000000000003      -0.0012716262921230737   1
1.8749999999999998        0.35000000000000003      -8.143261932711532E-4    1
1.925                     0.35000000000000003      -9.961000421041533E-4    1
1.975                     0.35000000000000003      -0.0010452984845485958   1
2.025                     0.35000000000000003      -9.64544546345536E-4     1
2.0749999999999997        0.35000000000000003      -6.956067072354521E-4    1
2.1250000000000004        0.35000000000000003      -5.104360067076374E-4    1
2.1750000000000003        0.35000000000000003      -4.6670711300489387E-4   1
2.225                     0.35000000000000003      -6.991458095839675E-4    1
2.275                     0.35000000000000003      -7.378354622922245E-4    1
2.3249999999999993        0.35000000000000003      -4.564495410087632E-4    1
2.375                     0.35000000000000003      -2.4389371525390668E-4   1
2.425                     0.35000000000000003      1.027672310678629E-4     1
2.4749999999999996        0.35000000000000003      1.2497098634511872E-4    1
2.5250000000000004        0.35000000000000003      4.789000137161992E-5     1
2.575                     0.35000000000000003      1.0394661578971842E-4    1
2.625                     0.35000000000000003      2.4583668980326934E-4    1
2.675                     0.35000000000000003      -1.9007076700638947E-4   1
2.7249999999999996        0.35000000000000003      5.643511476494112E-4     1
2.7750000000000004        0.35000000000000003      5.265031958301414E-4     1
2.825                     0.35000000000000003      5.331243346001213E-4     1
2.875                     0.35000000000000003      5.560449451003091E-4     1
2.9250000000000007        0.35000000000000003      1.1418674079699542E-4    1
2.975                     0.35000000000000003      3.6603525372891355E-4    1
3.025                     0.35000000000000003      5.784468161631473E-4     1
3.0749999999999997        0.35000000000000003      7.908583785924961E-4     1
3.1249999999999996        0.35000000000000003      9.208990783931004E-4     1
3.1750000000000003        0.35000000000000003      8.146139326834501E-4     1
3.225                     0.35000000000000003      7.083287869682486E-4     1
3.275                     0.35000000000000003      6.02043641256822E-4      1
3.3249999999999997        0.35000000000000003      6.62417086397582E-4      1
3.3750000000000004        0.35000000000000003      7.840995380501425E-4     1
3.4250000000000003        0.35000000000000003      9.057819897038133E-4     1
3.475                     0.35000000000000003      0.0010274644413554856    1