% Model:              nc_magnet_1.mph
% Version:            COMSOL 6.2.0.415
% Date:               Feb 3 2025, 10:42
% Dimension:          2
% Nodes:              3000
% Expressions:        2
% Description:        Point
% cpl8x                   cpl8y                    Magnetic flux density, z-component Radius
-0.475                    0.05                     -2.4165904983872166E-4   1
-0.425                    0.05                     -7.24977149516165E-4     1
-0.375                    0.05                     -0.0012082952491935806   1
-0.32499999999999996      0.05                     -0.001643205332891683    1
-0.275                    0.05                     -0.002010266772462837    1
-0.22499999999999998      0.05                     -0.0025164765606593836   1
-0.17500000000000004      0.05                     -0.003022107685326819    1
-0.12500000000000006      0.05                     -0.003782247757280144    1
-0.07500000000000001      0.05                     -0.004389871269356416    1
-0.025000000000000022     0.05                     -0.004801494851687127    1
0.024999999999999967      0.05                     -0.08328771739769542     1
0.07500000000000007       0.05                     -0.3119416970246156      1
0.125                     0.05                     -0.4302149586481459      1
0.17500000000000004       0.05                     -0.6396955090698371      1
0.22499999999999998       0.05                     -0.827132219022618       1
0.275                     0.05                     -0.9711637284539162      1
0.32500000000000007       0.05                     -1.0081014980134924      1
0.375                     0.05                     -1.055814113247297       1
0.42500000000000004       0.05                     -1.1154905948336542      1
0.4750000000000001        0.05                     -1.181467487568687       1
0.5249999999999999        0.05                     -1.2177066321059673      1
0.575                     0.05                     -1.2126549153590227      1
0.625                     0.05                     -1.2376300259193735      1
0.6749999999999998        0.05                     -1.2506085436012715      1
0.7250000000000001        0.05                     -1.2605171104128938      1
0.7749999999999999        0.05                     -1.2704256772245166      1
0.8250000000000002        0.05                     -1.2803342440361378      1
0.875                     0.05                     -1.3497862242157366      1
0.9249999999999999        0.05                     -1.334662981342815       1
0.9749999999999999        0.05                     -1.3536588910527694      1
1.025                     0.05                     -1.3031096599559084      1
1.075                     0.05                     -1.291872532662751       1
1.125                     0.05                     -1.2806354053695963      1
1.175                     0.05                     -1.2693982780764408      1
1.2249999999999996        0.05                     -1.2581611507832848      1
1.275                     0.05                     -1.2469240234901298      1
1.3250000000000002        0.05                     -1.2356868961969747      1
1.375                     0.05                     -1.3423623461252674      1
1.4249999999999998        0.05                     -1.232166236331095       1
1.475                     0.05                     -1.2193878890469456      1
1.5250000000000004        0.05                     -1.1650361514482996      1
1.575                     0.05                     -1.1603799005888513      1
1.625                     0.05                     -1.1557236497294028      1
1.675                     0.05                     -1.1510673988699547      1
1.725                     0.05                     -1.1464111480105066      1
1.775                     0.05                     -1.1417548971510594      1
1.8250000000000002        0.05                     -1.0941066536613562      1
1.8749999999999998        0.05                     -1.0532981264348171      1
1.925                     0.05                     -0.9199499538982722      1
1.975                     0.05                     -0.9497674789074103      1
2.025                     0.05                     -0.9249741761040892      1
2.0749999999999997        0.05                     -0.900180873300767       1
2.1250000000000004        0.05                     -0.8753875704974471      1
2.1750000000000003        0.05                     -0.8505942676941248      1
2.225                     0.05                     -0.8258009648908038      1
2.275                     0.05                     -0.8010076620874831      1
2.3249999999999993        0.05                     -0.702773694038163       1
2.375                     0.05                     -0.5973078700246542      1
2.425                     0.05                     -0.5808775635677603      1
2.4749999999999996        0.05                     -0.5730524562633417      1
2.5250000000000004        0.05                     -0.5439028198082503      1
2.575                     0.05                     -0.5147531833531601      1
2.625                     0.05                     -0.4856035468980697      1
2.675                     0.05                     -0.4564539104429788      1
2.7249999999999996        0.05                     -0.42730427398788895     1
2.7750000000000004        0.05                     -0.3646009188477379      1
2.825                     0.05                     -0.3212965239413499      1
2.875                     0.05                     -0.30923051732640267     1
2.9250000000000007        0.05                     -0.29716451071145744     1
2.975                     0.05                     -0.2832494162985896      1
3.025                     0.05                     -0.2666535231214755      1
3.0749999999999997        0.05                     -0.25385701398800653     1
3.1249999999999996        0.05                     -0.23192806518058395     1
3.1750000000000003        0.05                     -0.20999911637316027     1
3.225                     0.05                     -0.18807016756573702     1
3.275                     0.05                     -0.17745510232306871     1
3.3249999999999997        0.05                     -0.1587748478187856      1
3.3750000000000004        0.05                     -0.14897149118089445     1
3.4250000000000003        0.05                     -0.14363981557373467     1
3.475                     0.05                     -0.13595073188081216     1
3.525                     0.05                     -0.11861586932972103     1
3.5749999999999993        0.05                     -0.10128100677863061     1
3.625                     0.05                     -0.08394614422753945     1
3.675                     0.05                     -0.06904082184493138     1
3.7249999999999996        0.05                     -0.06506924144952964     1
3.7750000000000004        0.05                     -0.05643494679753347     1
3.825                     0.05                     -0.04717602889497696     1
3.875                     0.05                     -0.029029063791881526    1
3.925                     0.05                     -0.010882098688787423    1
3.9749999999999996        0.05                     -0.0015105052231347837   1
4.0249999999999995        0.05                     0.002146786454344851     1
4.074999999999999         0.05                     0.0021977887458324297    1
4.125000000000001         0.05                     0.002248791037319897     1
4.175000000000001         0.05                     0.0022000484668343034    1
4.225                     0.05                     0.0020336960029045947    1
4.2749999999999995        0.05                     0.0015095004771798343    1
4.325                     0.05                     0.0014381768721553057    1
4.375                     0.05                     0.0010272691943967738    1
4.425                     0.05                     6.163615166380199E-4     1
4.475                     0.05                     2.0545383887933533E-4    1
-0.475                    0.15000000000000002      -2.8567754557757424E-4   1
-0.425                    0.15000000000000002      -6.733719090454247E-4    1
-0.375                    0.15000000000000002      -0.0010610662725132544   1
-0.32499999999999996      0.15000000000000002      -0.0014929611332054407   1
-0.275                    0.15000000000000002      -0.0019991709214021297   1
-0.22499999999999998      0.15000000000000002      -0.002505380709598798    1
-0.17500000000000004      0.15000000000000002      -0.003141941864891251    1
-0.12500000000000006      0.15000000000000002      -0.003586302579116629    1
-0.07500000000000001      0.15000000000000002      -0.00448071468698874     1
-0.025000000000000022     0.15000000000000002      -0.005332553416535268    1
0.024999999999999967      0.15000000000000002      -0.03322287099302651     1
0.07500000000000007       0.15000000000000002      -0.10739849106519062     1
0.125                     0.15000000000000002      -0.22666904442321778     1
0.17500000000000004       0.15000000000000002      -0.3432005232869022      1
0.22499999999999998       0.15000000000000002      -0.45685693670075395     1
0.275                     0.15000000000000002      -0.5314343099212484      1
0.32500000000000007       0.15000000000000002      -0.6060116831417419      1
0.375                     0.15000000000000002      -0.708031543089044       1
0.42500000000000004       0.15000000000000002      -0.8831539380879921      1
0.4750000000000001        0.15000000000000002      -1.0809644366606102      1
0.5249999999999999        0.15000000000000002      -1.1059395472209612      1
0.575                     0.15000000000000002      -1.087503444607598       1
0.625                     0.15000000000000002      -1.1248553174254696      1
0.6749999999999998        0.15000000000000002      -1.1622071902433389      1
0.7250000000000001        0.15000000000000002      -1.1879365632167393      1
0.7749999999999999        0.15000000000000002      -1.170816591020612       1
0.8250000000000002        0.15000000000000002      -1.1556933481476905      1
0.875                     0.15000000000000002      -1.1500484274887912      1
0.9249999999999999        0.15000000000000002      -1.1535025108591206      1
0.9749999999999999        0.15000000000000002      -1.1756773312525752      1
1.025                     0.15000000000000002      -1.205385531325306       1
1.075                     0.15000000000000002      -1.2374048701276685      1
1.125                     0.15000000000000002      -1.2104781189497282      1
1.175                     0.15000000000000002      -1.1992409916565725      1
1.2249999999999996        0.15000000000000002      -1.2273971440652864      1
1.275                     0.15000000000000002      -1.2021508519969215      1
1.3250000000000002        0.15000000000000002      -1.2009231720852827      1
1.375                     0.15000000000000002      -1.2063550399552807      1
1.4249999999999998        0.15000000000000002      -1.2090179374917385      1
1.475                     0.15000000000000002      -1.146627386735074       1
1.5250000000000004        0.15000000000000002      -1.1338490394509235      1
1.575                     0.15000000000000002      -1.1210706921667737      1
1.625                     0.15000000000000002      -1.1082923448826225      1
1.675                     0.15000000000000002      -1.112904876590537       1
1.725                     0.15000000000000002      -1.0837449586700876      1
1.775                     0.15000000000000002      -1.0107405510636123      1
1.8250000000000002        0.15000000000000002      -1.0231883007573424      1
1.8749999999999998        0.15000000000000002      -0.9916969093949468      1
1.925                     0.15000000000000002      -0.966295185804783       1
1.975                     0.15000000000000002      -0.894937881447246       1
2.025                     0.15000000000000002      -0.861141497319043       1
2.0749999999999997        0.15000000000000002      -0.8852551247568587      1
2.1250000000000004        0.15000000000000002      -0.8604618219535374      1
2.1750000000000003        0.15000000000000002      -0.8356685191502153      1
2.225                     0.15000000000000002      -0.8108752163468942      1
2.275                     0.15000000000000002      -0.7172295727827602      1
2.3249999999999993        0.15000000000000002      -0.6993447067515033      1
2.375                     0.15000000000000002      -0.6909215777476628      1
2.425                     0.15000000000000002      -0.5886176045444307      1
2.4749999999999996        0.15000000000000002      -0.5643966390569722      1
2.5250000000000004        0.15000000000000002      -0.5531865694392001      1
2.575                     0.15000000000000002      -0.5240369329841096      1
2.625                     0.15000000000000002      -0.49488729652901875     1
2.675                     0.15000000000000002      -0.46573766007392803     1
2.7249999999999996        0.15000000000000002      -0.387951248874966       1
2.7750000000000004        0.15000000000000002      -0.37064761698789445     1
2.825                     0.15000000000000002      -0.3533439851008235      1
2.875                     0.15000000000000002      -0.320905737443153       1
2.9250000000000007        0.15000000000000002      -0.30430984426603924     1
2.975                     0.15000000000000002      -0.28771395108892595     1
3.025                     0.15000000000000002      -0.27111805791181176     1
3.0749999999999997        0.15000000000000002      -0.2545221647346978      1
3.1249999999999996        0.15000000000000002      -0.2379262715575836      1
3.1750000000000003        0.15000000000000002      -0.22133037838046832     1
3.225                     0.15000000000000002      -0.19996506784113116     1
3.275                     0.15000000000000002      -0.18548261261509036     1
3.3249999999999997        0.15000000000000002      -0.1710001573890496      1
3.3750000000000004        0.15000000000000002      -0.16428669912813704     1
3.4250000000000003        0.15000000000000002      -0.15300327138783554     1
3.475                     0.15000000000000002      -0.14171984364753198     1
3.525                     0.15000000000000002      -0.14752862264401134     1
3.5749999999999993        0.15000000000000002      -0.09812716345545197     1
3.625                     0.15000000000000002      -0.08303556155501901     1
3.675                     0.15000000000000002      -0.070873505238366       1
3.7249999999999996        0.15000000000000002      -0.0638054854377113      1
3.7750000000000004        0.15000000000000002      -0.061970956632455665    1
3.825                     0.15000000000000002      -0.05075935112896901     1
3.875                     0.15000000000000002      -0.013493579492349195    1
3.925                     0.15000000000000002      -0.008794300890506257    1
3.9749999999999996        0.15000000000000002      -0.0015307198270340105   1
4.0249999999999995        0.15000000000000002      0.0022815002159926046    1
4.074999999999999         0.15000000000000002      0.002285787991106236     1
4.125000000000001         0.15000000000000002      0.002248160967940338     1
4.175000000000001         0.15000000000000002      0.0020812876629739963    1
4.225                     0.15000000000000002      0.001911226270505939     1
4.2749999999999995        0.15000000000000002      0.0016125447495548006    1
4.325                     0.15000000000000002      0.0012608292658601306    1
4.375                     0.15000000000000002      9.156353122723448E-4     1
4.425                     0.15000000000000002      6.163615166380199E-4     1
4.475                     0.15000000000000002      2.0545383887933533E-4    1
-0.475                    0.25                     -1.3202109648132246E-4   1
-0.425                    0.25                     -7.776445632348818E-4    1
-0.375                    0.25                     -0.0011908036952928637   1
-0.32499999999999996      0.25                     -0.0016039628273514293   1
-0.275                    0.25                     -0.002017121959409745    1
-0.22499999999999998      0.25                     -0.0024302810914680747   1
-0.17500000000000004      0.25                     -0.0028434402235263277   1
-0.12500000000000006      0.25                     -0.0038965620384274757   1
-0.07500000000000001      0.25                     -0.004996013061298932    1
-0.025000000000000022     0.25                     -0.005842684062016712    1
0.024999999999999967      0.25                     -0.026802500906447424    1
0.07500000000000007       0.25                     -0.06432337810783581     1
0.125                     0.25                     -0.1083507683202396      1
0.17500000000000004       0.25                     -0.15080495289112772     1
0.22499999999999998       0.25                     -0.21192749534677913     1
0.275                     0.25                     -0.27196389488805606     1
0.32500000000000007       0.25                     -0.33415827366798406     1
0.375                     0.25                     -0.38969513407101775     1
0.42500000000000004       0.25                     -0.43730712862532206     1
0.4750000000000001        0.25                     -0.5239075931216758      1
0.5249999999999999        0.25                     -0.5919497102374791      1
0.575                     0.25                     -0.6599918273532808      1
0.625                     0.25                     -0.7527251331374187      1
0.6749999999999998        0.25                     -0.7909601255374082      1
0.7250000000000001        0.25                     -0.840762560745862       1
0.7749999999999999        0.25                     -0.8905649959543175      1
0.8250000000000002        0.25                     -0.9721208976627305      1
0.875                     0.25                     -0.9755749810330596      1
0.9249999999999999        0.25                     -0.9790290644033894      1
0.9749999999999999        0.25                     -0.9948314629848898      1
1.025                     0.25                     -1.0223471976897902      1
1.075                     0.25                     -1.0498629323946949      1
1.125                     0.25                     -1.067259045261536       1
1.175                     0.25                     -1.08414480469752        1
1.2249999999999996        0.25                     -1.0540521301753005      1
1.275                     0.25                     -1.0594839980452977      1
1.3250000000000002        0.25                     -1.064915865915295       1
1.375                     0.25                     -1.0703477337852942      1
1.4249999999999998        0.25                     -1.0757796016552905      1
1.475                     0.25                     -1.1045115292492558      1
1.5250000000000004        0.25                     -1.0610885371390524      1
1.575                     0.25                     -1.029619478829853       1
1.625                     0.25                     -1.0733832636788185      1
1.675                     0.25                     -1.0378891593843909      1
1.725                     0.25                     -0.9975801502249688      1
1.775                     0.25                     -1.0043147041389613      1
1.8250000000000002        0.25                     -0.9999893242342804      1
1.8749999999999998        0.25                     -0.9952194014101974      1
1.925                     0.25                     -0.8979147080167071      1
1.975                     0.25                     -0.8806968633006262      1
2.025                     0.25                     -0.8634790185845471      1
2.0749999999999997        0.25                     -0.8361294248680149      1
2.1250000000000004        0.25                     -0.802333040739812       1
2.1750000000000003        0.25                     -0.8207427706063062      1
2.225                     0.25                     -0.7316854515273562      1
2.275                     0.25                     -0.7138005854960996      1
2.3249999999999993        0.25                     -0.6960169761769153      1
2.375                     0.25                     -0.6694793833510922      1
2.425                     0.25                     -0.6429417905252708      1
2.4749999999999996        0.25                     -0.6164041976994485      1
2.5250000000000004        0.25                     -0.5479157145461884      1
2.575                     0.25                     -0.5333206826150588      1
2.625                     0.25                     -0.4286052107892666      1
2.675                     0.25                     -0.4113015789021951      1
2.7249999999999996        0.25                     -0.3939979470151236      1
2.7750000000000004        0.25                     -0.40871976349040784     1
2.825                     0.25                     -0.3835485423520466      1
2.875                     0.25                     -0.3583773212136851      1
2.9250000000000007        0.25                     -0.3312677791477239      1
2.975                     0.25                     -0.3076125085824688      1
3.025                     0.25                     -0.27558259270214736     1
3.0749999999999997        0.25                     -0.2589866995250336      1
3.1249999999999996        0.25                     -0.21140073733071452     1
3.1750000000000003        0.25                     -0.19943697922788317     1
3.225                     0.25                     -0.18747322112505366     1
3.275                     0.25                     -0.1935101229071127      1
3.3249999999999997        0.25                     -0.18297555866894494     1
3.3750000000000004        0.25                     -0.17169213092864166     1
3.4250000000000003        0.25                     -0.16040870318833944     1
3.475                     0.25                     -0.14912527544803833     1
3.525                     0.25                     -0.14487400074178391     1
3.5749999999999993        0.25                     -0.1345274307594735      1
3.625                     0.25                     -0.10471221085593985     1
3.675                     0.25                     -0.0856707037746518      1
3.7249999999999996        0.25                     -0.07860268397399783     1
3.7750000000000004        0.25                     -0.05514232812015829     1
3.825                     0.25                     -0.03279923856173528     1
3.875                     0.25                     -0.010456149003312598    1
3.925                     0.25                     -0.0011898874891948519   1
3.9749999999999996        0.25                     0.011729190896590497     1
4.0249999999999995        0.25                     0.0023825717315786865    1
4.074999999999999         0.25                     0.002337364020578603     1
4.125000000000001         0.25                     0.0023895922005326958    1
4.175000000000001         0.25                     0.0022195308080639586    1
4.225                     0.25                     0.00204946941559557      1
4.2749999999999995        0.25                     0.00171558902192942      1
4.325                     0.25                     0.0013638735382354161    1
4.375                     0.25                     0.0010121580545401354    1
4.425                     0.25                     6.1439606800473E-4       1
4.475                     0.25                     2.8638095432564903E-4    1
-0.475                    0.35                     -2.1832766905578727E-4   1
-0.425                    0.35                     -4.7298972652688037E-4   1
-0.375                    0.35                     -8.109913716920024E-4    1
-0.32499999999999996      0.35                     -0.001241759415373181    1
-0.275                    0.35                     -0.0016725274590541962   1
-0.22499999999999998      0.35                     -0.0021032955027357088   1
-0.17500000000000004      0.35                     -0.0025340635464165305   1
-0.12500000000000006      0.35                     -0.0035508864161255538   1
-0.07500000000000001      0.35                     -0.0044965035920701      1
-0.025000000000000022     0.35                     -0.005442120768014425    1
0.024999999999999967      0.35                     -0.023234117733035853    1
0.07500000000000007       0.35                     -0.05492825309097013     1
0.125                     0.35                     -0.0695036684214907      1
0.17500000000000004       0.35                     -0.09890147548201966     1
0.22499999999999998       0.35                     -0.13560107407550287     1
0.275                     0.35                     -0.1732671828648234      1
0.32500000000000007       0.35                     -0.2206590285361414      1
0.375                     0.35                     -0.26625169137994864     1
0.42500000000000004       0.35                     -0.302099153610526       1
0.4750000000000001        0.35                     -0.3311245092088898      1
0.5249999999999999        0.35                     -0.35886567968087246     1
0.575                     0.35                     -0.3834833969335527      1
0.625                     0.35                     -0.4055637075812576      1
0.6749999999999998        0.35                     -0.4787941126843703      1
0.7250000000000001        0.35                     -0.5285965478928254      1
0.7749999999999999        0.35                     -0.5868836094426417      1
0.8250000000000002        0.35                     -0.6178110412303037      1
0.875                     0.35                     -0.6487384730179662      1
0.9249999999999999        0.35                     -0.6796659048056312      1
0.9749999999999999        0.35                     -0.7479692426005928      1
1.025                     0.35                     -0.7857527231095037      1
1.075                     0.35                     -0.8235362036184157      1
1.125                     0.35                     -0.8400568273617555      1
1.175                     0.35                     -0.8238844147073521      1
1.2249999999999996        0.35                     -0.8404322965406235      1
1.275                     0.35                     -0.8793124548361781      1
1.3250000000000002        0.35                     -0.8856631009223749      1
1.375                     0.35                     -0.8920137470085726      1
1.4249999999999998        0.35                     -0.8983643930947713      1
1.475                     0.35                     -0.913369068302367       1
1.5250000000000004        0.35                     -0.9094903933324895      1
1.575                     0.35                     -1.0275274643931227      1
1.625                     0.35                     -0.9719719996925931      1
1.675                     0.35                     -0.9844197493863241      1
1.725                     0.35                     -0.8952561248195832      1
1.775                     0.35                     -0.8866652949079039      1
1.8250000000000002        0.35                     -0.8786949767345695      1
1.8749999999999998        0.35                     -0.8739250539104855      1
1.925                     0.35                     -0.8185373541274599      1
1.975                     0.35                     -0.8123163855125513      1
2.025                     0.35                     -0.7950985407964696      1
2.0749999999999997        0.35                     -0.7778806960803908      1
2.1250000000000004        0.35                     -0.8111173524169882      1
2.1750000000000003        0.35                     -0.7095256845156215      1
2.225                     0.35                     -0.7282564642406943      1
2.275                     0.35                     -0.7011123746061689      1
2.3249999999999993        0.35                     -0.6745747817803442      1
2.375                     0.35                     -0.6480371889545227      1
2.425                     0.35                     -0.6214995961287         1
2.4749999999999996        0.35                     -0.5949620033028777      1
2.5250000000000004        0.35                     -0.5684244104770566      1
2.575                     0.35                     -0.44378109802026466     1
2.625                     0.35                     -0.42780650837290635     1
2.675                     0.35                     -0.46972596803943656     1
2.7249999999999996        0.35                     -0.4445547469010749      1
2.7750000000000004        0.35                     -0.4193835257627123      1
2.825                     0.35                     -0.39421230462435086     1
2.875                     0.35                     -0.3690410834859881      1
2.9250000000000007        0.35                     -0.3411418544127771      1
2.975                     0.35                     -0.31748658384752204     1
3.025                     0.35                     -0.278533543911184       1
3.0749999999999997        0.35                     -0.2612883657114349      1
3.1249999999999996        0.35                     -0.21910618410599292     1
3.1750000000000003        0.35                     -0.21223170272461633     1
3.225                     0.35                     -0.20535722134323875     1
3.275                     0.35                     -0.20784229402212004     1
3.3249999999999997        0.35                     -0.19876919323926234     1
3.3750000000000004        0.35                     -0.21472395504744135     1
3.4250000000000003        0.35                     -0.19803860339621426     1
3.475                     0.35                     -0.16779634315091177     1