% Model:              nc_magnet_1.mph
% Version:            COMSOL 6.2.0.415
% Date:               Feb 3 2025, 10:33
% Dimension:          2
% Nodes:              3000
% Expressions:        2
% Description:        Point
% cpl3x                   cpl3y                    Magnetic flux density, z-component Radius
-0.475                    0.05000000000000001      -1.485843166967593E-4    1
-0.425                    0.05000000000000001      -3.46065253406469E-4     1
-0.375                    0.05000000000000001      -5.132226388918915E-4    1
-0.32499999999999996      0.05000000000000001      -7.261367215545267E-4    1
-0.275                    0.05000000000000001      -9.439320767041792E-4    1
-0.22499999999999998      0.05000000000000001      -0.0012030812404452695   1
-0.17500000000000004      0.05000000000000001      -0.0014783992219511433   1
-0.12500000000000006      0.05000000000000001      -0.0016865251850362029   1
-0.07500000000000001      0.05000000000000001      -0.0019387062650282338   1
-0.025000000000000022     0.05000000000000001      -0.0021135208993232624   1
0.024999999999999967      0.05000000000000001      -0.003973797431535628    1
0.07500000000000007       0.05000000000000001      -0.007425934286860336    1
0.125                     0.05000000000000001      -0.010403200487191455    1
0.17500000000000004       0.05000000000000001      -0.013456570121338274    1
0.22499999999999998       0.05000000000000001      -0.016875714648940637    1
0.275                     0.05000000000000001      -0.019286321824437347    1
0.32500000000000007       0.05000000000000001      -0.02152637991161388     1
0.375                     0.05000000000000001      -0.02371903001911324     1
0.42500000000000004       0.05000000000000001      -0.025609329106696943    1
0.4750000000000001        0.05000000000000001      -0.02789408705162927     1
0.5249999999999999        0.05000000000000001      -0.029584465245252156    1
0.575                     0.05000000000000001      -0.031072260037711352    1
0.625                     0.05000000000000001      -0.03201841345613449     1
0.6749999999999998        0.05000000000000001      -0.03361259898021285     1
0.7250000000000001        0.05000000000000001      -0.03508650796450441     1
0.7749999999999999        0.05000000000000001      -0.03604803181698468     1
0.8250000000000002        0.05000000000000001      -0.03674692824214265     1
0.875                     0.05000000000000001      -0.037341286176263644    1
0.9249999999999999        0.05000000000000001      -0.03757139430556178     1
0.9749999999999999        0.05000000000000001      -0.038025335390305004    1
1.025                     0.05000000000000001      -0.03869740397325788     1
1.075                     0.05000000000000001      -0.03897418318089191     1
1.125                     0.05000000000000001      -0.03904779771388195     1
1.175                     0.05000000000000001      -0.03912141224687088     1
1.2249999999999996        0.05000000000000001      -0.039045965755003714    1
1.275                     0.05000000000000001      -0.03894091828270041     1
1.3250000000000002        0.05000000000000001      -0.038632057997242564    1
1.375                     0.05000000000000001      -0.03835266012054994     1
1.4249999999999998        0.05000000000000001      -0.038044002843101055    1
1.475                     0.05000000000000001      -0.0377353455656575      1
1.5250000000000004        0.05000000000000001      -0.03700788245509479     1
1.575                     0.05000000000000001      -0.03644028743335248     1
1.625                     0.05000000000000001      -0.035669755686676075    1
1.675                     0.05000000000000001      -0.034942119080743406    1
1.725                     0.05000000000000001      -0.034550752670754914    1
1.775                     0.05000000000000001      -0.03407355200109485     1
1.8250000000000002        0.05000000000000001      -0.03359635133143479     1
1.8749999999999998        0.05000000000000001      -0.03311915066177473     1
1.925                     0.05000000000000001      -0.03246738155195361     1
1.975                     0.05000000000000001      -0.03139118524141771     1
2.025                     0.05000000000000001      -0.031148373183026656    1
2.0749999999999997        0.05000000000000001      -0.029764036369864133    1
2.1250000000000004        0.05000000000000001      -0.028765345916044294    1
2.1750000000000003        0.05000000000000001      -0.027766655462223788    1
2.225                     0.05000000000000001      -0.026767965008403394    1
2.275                     0.05000000000000001      -0.025769274554583       1
2.3249999999999993        0.05000000000000001      -0.024612258925899688    1
2.375                     0.05000000000000001      -0.025055727649228587    1
2.425                     0.05000000000000001      -0.024047865695486698    1
2.4749999999999996        0.05000000000000001      -0.022960905139741916    1
2.5250000000000004        0.05000000000000001      -0.02187394458399816     1
2.575                     0.05000000000000001      -0.020786984028251965    1
2.625                     0.05000000000000001      -0.019700023472507322    1
2.675                     0.05000000000000001      -0.01861306291676268     1
2.7249999999999996        0.05000000000000001      -0.017812825005819932    1
2.7750000000000004        0.05000000000000001      -0.018356959631991354    1
2.825                     0.05000000000000001      -0.016551764880313735    1
2.875                     0.05000000000000001      -0.014675996465811636    1
2.9250000000000007        0.05000000000000001      -0.015214703966469845    1
2.975                     0.05000000000000001      -0.014273119682625346    1
3.025                     0.05000000000000001      -0.013331535398781513    1
3.0749999999999997        0.05000000000000001      -0.012389951114937736    1
3.1249999999999996        0.05000000000000001      -0.01144836683109457     1
3.1750000000000003        0.05000000000000001      -0.010682363864322142    1
3.225                     0.05000000000000001      -0.009296934220236697    1
3.275                     0.05000000000000001      -0.009234142720899091    1
3.3249999999999997        0.05000000000000001      -0.008048782628569229    1
3.3750000000000004        0.05000000000000001      -0.007328517793580347    1
3.4250000000000003        0.05000000000000001      -0.006889491699823502    1
3.475                     0.05000000000000001      -0.006250171557889983    1
3.525                     0.05000000000000001      -0.005853836541376889    1
3.5749999999999993        0.05000000000000001      -0.004951645974250823    1
3.625                     0.05000000000000001      -0.004155067899886733    1
3.675                     0.05000000000000001      -0.003190508864719721    1
3.7249999999999996        0.05000000000000001      -0.0027429889861946832   1
3.7750000000000004        0.05000000000000001      -0.0019726467282471516   1
3.825                     0.05000000000000001      -0.0012761564211538623   1
3.875                     0.05000000000000001      -6.184214041961358E-4    1
3.925                     0.05000000000000001      2.0238153074440823E-4    1
3.9749999999999996        0.05000000000000001      9.460962083953639E-4     1
4.0249999999999995        0.05000000000000001      0.0012504696477112793    1
4.074999999999999         0.05000000000000001      0.0012231281653625192    1
4.125000000000001         0.05000000000000001      0.0011479921982138208    1
4.175000000000001         0.05000000000000001      0.0010474276488134926    1
4.225                     0.05000000000000001      8.978376612959194E-4     1
4.2749999999999995        0.05000000000000001      7.337892861993822E-4     1
4.325                     0.05000000000000001      5.668142224284356E-4     1
4.375                     0.05000000000000001      4.4052739606323735E-4    1
4.425                     0.05000000000000001      3.636015515852131E-4     1
4.475                     0.05000000000000001      1.2120051719502478E-4    1
-0.475                    0.15000000000000002      -3.5901934693466364E-5   1
-0.425                    0.15000000000000002      -1.534893151786676E-4    1
-0.375                    0.15000000000000002      -4.3006886638716213E-4   1
-0.32499999999999996      0.15000000000000002      -6.632008392838395E-4    1
-0.275                    0.15000000000000002      -9.235718316640273E-4    1
-0.22499999999999998      0.15000000000000002      -0.0011125124879503012   1
-0.17500000000000004      0.15000000000000002      -0.0014586232845548164   1
-0.12500000000000006      0.15000000000000002      -0.001742640328313616    1
-0.07500000000000001      0.15000000000000002      -0.0020939364946244154   1
-0.025000000000000022     0.15000000000000002      -0.0023229271625755388   1
0.024999999999999967      0.15000000000000002      -0.0034949300670628486   1
0.07500000000000007       0.15000000000000002      -0.007488177948708596    1
0.125                     0.15000000000000002      -0.010842373490657975    1
0.17500000000000004       0.15000000000000002      -0.013708750675554882    1
0.22499999999999998       0.15000000000000002      -0.016575127860463112    1
0.275                     0.15000000000000002      -0.019634382364011715    1
0.32500000000000007       0.15000000000000002      -0.02181414640248658     1
0.375                     0.15000000000000002      -0.024147473943003206    1
0.42500000000000004       0.15000000000000002      -0.026291618813420126    1
0.4750000000000001        0.15000000000000002      -0.026930124719886983    1
0.5249999999999999        0.15000000000000002      -0.029308213673386763    1
0.575                     0.15000000000000002      -0.03138565117392356     1
0.625                     0.15000000000000002      -0.0324565692976968      1
0.6749999999999998        0.15000000000000002      -0.033722395557528095    1
0.7250000000000001        0.15000000000000002      -0.03472311229840486     1
0.7749999999999999        0.15000000000000002      -0.035696460007173414    1
0.8250000000000002        0.15000000000000002      -0.036945539938738614    1
0.875                     0.15000000000000002      -0.037649710955385274    1
0.9249999999999999        0.15000000000000002      -0.03803453770613885     1
0.9749999999999999        0.15000000000000002      -0.03841936445689065     1
1.025                     0.15000000000000002      -0.03880419120765133     1
1.075                     0.15000000000000002      -0.038355562908125584    1
1.125                     0.15000000000000002      -0.03833521856725586     1
1.175                     0.15000000000000002      -0.03831487422639768     1
1.2249999999999996        0.15000000000000002      -0.0382945298855244      1
1.275                     0.15000000000000002      -0.03827418554465645     1
1.3250000000000002        0.15000000000000002      -0.03811885617990707     1
1.375                     0.15000000000000002      -0.037636754389557936    1
1.4249999999999998        0.15000000000000002      -0.03737521986955894     1
1.475                     0.15000000000000002      -0.03713826308953072     1
1.5250000000000004        0.15000000000000002      -0.03600949107725926     1
1.575                     0.15000000000000002      -0.03664567442994926     1
1.625                     0.15000000000000002      -0.03598043320111266     1
1.675                     0.15000000000000002      -0.03523119688457177     1
1.725                     0.15000000000000002      -0.03464717398055761     1
1.775                     0.15000000000000002      -0.034424603294373135    1
1.8250000000000002        0.15000000000000002      -0.03354913120509995     1
1.8749999999999998        0.15000000000000002      -0.032954178803766165    1
1.925                     0.15000000000000002      -0.031576648456198564    1
1.975                     0.15000000000000002      -0.030330746570749856    1
2.025                     0.15000000000000002      -0.030211086083951955    1
2.0749999999999997        0.15000000000000002      -0.029409296848386113    1
2.1250000000000004        0.15000000000000002      -0.028256594968238957    1
2.1750000000000003        0.15000000000000002      -0.02796043582463925     1
2.225                     0.15000000000000002      -0.027664276681038658    1
2.275                     0.15000000000000002      -0.026903383952448845    1
2.3249999999999993        0.15000000000000002      -0.025832335886343927    1
2.375                     0.15000000000000002      -0.024761287820238564    1
2.425                     0.15000000000000002      -0.023158896387038386    1
2.4749999999999996        0.15000000000000002      -0.02278284662693708     1
2.5250000000000004        0.15000000000000002      -0.02198839187931667     1
2.575                     0.15000000000000002      -0.02164931233480738     1
2.625                     0.15000000000000002      -0.021310232790297423    1
2.675                     0.15000000000000002      -0.020342897614778588    1
2.7249999999999996        0.15000000000000002      -0.019428000367642806    1
2.7750000000000004        0.15000000000000002      -0.01800723452673747     1
2.825                     0.15000000000000002      -0.016815734308335537    1
2.875                     0.15000000000000002      -0.015915171918391202    1
2.9250000000000007        0.15000000000000002      -0.014816061419665516    1
2.975                     0.15000000000000002      -0.01371695092093983     1
3.025                     0.15000000000000002      -0.013367435200478672    1
3.0749999999999997        0.15000000000000002      -0.013081746768837332    1
3.1249999999999996        0.15000000000000002      -0.012307895704981364    1
3.1750000000000003        0.15000000000000002      -0.011726443188374791    1
3.225                     0.15000000000000002      -0.010582674904553224    1
3.275                     0.15000000000000002      -0.00943890662073077     1
3.3249999999999997        0.15000000000000002      -0.008598380812711748    1
3.3750000000000004        0.15000000000000002      -0.007403081240771367    1
3.4250000000000003        0.15000000000000002      -0.007045549373047355    1
3.475                     0.15000000000000002      -0.006361313178180006    1
3.525                     0.15000000000000002      -0.005677076983313378    1
3.5749999999999993        0.15000000000000002      -0.004996590954246392    1
3.625                     0.15000000000000002      -0.0040443111230761275   1
3.675                     0.15000000000000002      -0.0029510987143746004   1
3.7249999999999996        0.15000000000000002      -0.0023076254420946185   1
3.7750000000000004        0.15000000000000002      -0.0016119128649136893   1
3.825                     0.15000000000000002      -0.0013274657472130968   1
3.875                     0.15000000000000002      -5.011442289117873E-4    1
3.925                     0.15000000000000002      2.1274407740490275E-4    1
3.9749999999999996        0.15000000000000002      9.557608061143696E-4     1
4.0249999999999995        0.15000000000000002      0.0012604389916202052    1
4.074999999999999         0.15000000000000002      0.0012261625093059614    1
4.125000000000001         0.15000000000000002      0.0011422897543758026    1
4.175000000000001         0.15000000000000002      0.0010771143297820807    1
4.225                     0.15000000000000002      9.124140620132559E-4     1
4.2749999999999995        0.15000000000000002      7.328213635608982E-4     1
4.325                     0.15000000000000002      5.804447537004487E-4     1
4.375                     0.15000000000000002      4.0677826645725557E-4    1
4.425                     0.15000000000000002      2.3252845881243994E-4    1
4.475                     0.15000000000000002      1.0308074293475383E-4    1
-0.475                    0.25                     -2.021268602359072E-5    1
-0.425                    0.25                     -1.62712432556944E-4     1
-0.375                    0.25                     -3.0521217908852094E-4   1
-0.32499999999999996      0.25                     -5.218413047395898E-4    1
-0.275                    0.25                     -7.65398844374543E-4     1
-0.22499999999999998      0.25                     -0.001058944076822943    1
-0.17500000000000004      0.25                     -0.0013886355132992634   1
-0.12500000000000006      0.25                     -0.0018009529499151689   1
-0.07500000000000001      0.25                     -0.00230781844289929     1
-0.025000000000000022     0.25                     -0.0032846271377522385   1
0.024999999999999967      0.25                     -0.00541390964008448     1
0.07500000000000007       0.25                     -0.009151281122553812    1
0.125                     0.25                     -0.011941261389257551    1
0.17500000000000004       0.25                     -0.014677644768686271    1
0.22499999999999998       0.25                     -0.017340715915352467    1
0.275                     0.25                     -0.020039803943743273    1
0.32500000000000007       0.25                     -0.022386544355132543    1
0.375                     0.25                     -0.02411845327600126     1
0.42500000000000004       0.25                     -0.025891033184208823    1
0.4750000000000001        0.25                     -0.028153295642130427    1
0.5249999999999999        0.25                     -0.029779662850500266    1
0.575                     0.25                     -0.0313426418008399      1
0.625                     0.25                     -0.032613305994521724    1
0.6749999999999998        0.25                     -0.03377633374371558     1
0.7250000000000001        0.25                     -0.03499003885420837     1
0.7749999999999999        0.25                     -0.03590025846441978     1
0.8250000000000002        0.25                     -0.03643959834681176     1
0.875                     0.25                     -0.03687348354318232     1
0.9249999999999999        0.25                     -0.03788864669730785     1
0.9749999999999999        0.25                     -0.03821014235415987     1
1.025                     0.25                     -0.03846572510950641     1
1.075                     0.25                     -0.038709183176317274    1
1.125                     0.25                     -0.038760144057857104    1
1.175                     0.25                     -0.03851831247106041     1
1.2249999999999996        0.25                     -0.03848369690326914     1
1.275                     0.25                     -0.0384812574376967      1
1.3250000000000002        0.25                     -0.038210653007840545    1
1.375                     0.25                     -0.03793479278173173     1
1.4249999999999998        0.25                     -0.03757318757240152     1
1.475                     0.25                     -0.03720131605769028     1
1.5250000000000004        0.25                     -0.036794357675759226    1
1.575                     0.25                     -0.03624460209304381     1
1.625                     0.25                     -0.035549919700057       1
1.675                     0.25                     -0.0350831995034957      1
1.725                     0.25                     -0.034759618835900064    1
1.775                     0.25                     -0.03389204025021009     1
1.8250000000000002        0.25                     -0.032883538169218296    1
1.8749999999999998        0.25                     -0.032203548962743245    1
1.925                     0.25                     -0.0318885666462565      1
1.975                     0.25                     -0.031086777410691102    1
2.025                     0.25                     -0.030284988175121264    1
2.0749999999999997        0.25                     -0.029483198939559863    1
2.1250000000000004        0.25                     -0.029060639345547035    1
2.1750000000000003        0.25                     -0.028114026583637486    1
2.225                     0.25                     -0.02775923701232852     1
2.275                     0.25                     -0.02638480308930724     1
2.3249999999999993        0.25                     -0.02501036916628685     1
2.375                     0.25                     -0.023972877725197517    1
2.425                     0.25                     -0.023447512913190804    1
2.4749999999999996        0.25                     -0.0227947350152774      1
2.5250000000000004        0.25                     -0.02214195711736644     1
2.575                     0.25                     -0.021023152634319642    1
2.625                     0.25                     -0.020271504468233115    1
2.675                     0.25                     -0.019519856302147698    1
2.7249999999999996        0.25                     -0.018883435905530682    1
2.7750000000000004        0.25                     -0.018030820385319224    1
2.825                     0.25                     -0.01720478181758822     1
2.875                     0.25                     -0.01637874324985613     1
2.9250000000000007        0.25                     -0.015539905303252777    1
2.975                     0.25                     -0.014050720209263956    1
3.025                     0.25                     -0.013026836489211324    1
3.0749999999999997        0.25                     -0.012419296499240673    1
3.1249999999999996        0.25                     -0.012073698155272261    1
3.1750000000000003        0.25                     -0.011559648437826475    1
3.225                     0.25                     -0.011290916702243553    1
3.275                     0.25                     -0.009960028546346589    1
3.3249999999999997        0.25                     -0.008621107843285458    1
3.3750000000000004        0.25                     -0.007305453167914866    1
3.4250000000000003        0.25                     -0.005957938841966659    1
3.475                     0.25                     -0.005480856164581938    1
3.525                     0.25                     -0.005170210255875052    1
3.5749999999999993        0.25                     -0.004859564347166723    1
3.625                     0.25                     -0.004284929221289868    1
3.675                     0.25                     -0.0035081083366328425   1
3.7249999999999996        0.25                     -0.0027312874519755947   1
3.7750000000000004        0.25                     -0.0019216367257692824   1
3.825                     0.25                     -0.0011674907156551395   1
3.875                     0.25                     -5.449236967658422E-4    1
3.925                     0.25                     2.3306424556679417E-4    1
3.9749999999999996        0.25                     9.78850625939831E-4      1
4.0249999999999995        0.25                     0.0012800496553104779    1
4.074999999999999         0.25                     0.0012499217531046214    1
4.125000000000001         0.25                     0.0011591756780946483    1
4.175000000000001         0.25                     0.0010225508002595848    1
4.225                     0.25                     9.294530868684259E-4     1
4.2749999999999995        0.25                     8.043678892095119E-4     1
4.325                     0.25                     5.601662764233573E-4     1
4.375                     0.25                     4.1340112995658096E-4    1
4.425                     0.25                     2.666359834884169E-4     1
4.475                     0.25                     3.164308530412274E-5     1
-0.475                    0.35000000000000003      -8.865677081868611E-5    1
-0.425                    0.35000000000000003      -2.659703124560653E-4    1
-0.375                    0.35000000000000003      -3.158182630038711E-4    1
-0.32499999999999996      0.35000000000000003      -3.8954781161962704E-4   1
-0.275                    0.35000000000000003      -5.278287485310784E-4    1
-0.22499999999999998      0.35000000000000003      -6.258189246945989E-4    1
-0.17500000000000004      0.35000000000000003      -7.476056010808918E-4    1
-0.12500000000000006      0.35000000000000003      -0.0010000280650503957   1
-0.07500000000000001      0.35000000000000003      -0.00145130496931678     1
-0.025000000000000022     0.35000000000000003      -0.0017751118591093906   1
0.024999999999999967      0.35000000000000003      -0.0013387549635428542   1
0.07500000000000007       0.35000000000000003      -8.997279869120689E-4    1
0.125                     0.35000000000000003      -8.516542549585893E-4    1
0.17500000000000004       0.35000000000000003      -8.340381930196372E-4    1
0.22499999999999998       0.35000000000000003      -8.245841672547272E-4    1
0.275                     0.35000000000000003      -8.155298838801173E-4    1
0.32500000000000007       0.35000000000000003      -0.022950707224290934    1
0.375                     0.35000000000000003      -0.024961868703151424    1
0.42500000000000004       0.35000000000000003      -0.026909672322371847    1
0.4750000000000001        0.35000000000000003      -0.028678089002231927    1
0.5249999999999999        0.35000000000000003      -0.03017199051186381     1
0.575                     0.35000000000000003      -0.031652712210308076    1
0.625                     0.35000000000000003      -0.03250713668924199     1
0.6749999999999998        0.35000000000000003      -0.03388769163034411     1
0.7250000000000001        0.35000000000000003      -0.03481640350495141     1
0.7749999999999999        0.35000000000000003      -0.035661962672001835    1
0.8250000000000002        0.35000000000000003      -0.03637682587285873     1
0.875                     0.35000000000000003      -0.03676425887534629     1
0.9249999999999999        0.35000000000000003      -0.03762476663336223     1
0.9749999999999999        0.35000000000000003      -0.03807851886463709     1
1.025                     0.35000000000000003      -0.038443408622153896    1
1.075                     0.35000000000000003      -0.03866020912373713     1
1.125                     0.35000000000000003      -0.03870618780563717     1
1.175                     0.35000000000000003      -0.038764198564985364    1
1.2249999999999996        0.35000000000000003      -0.038444565430947986    1
1.275                     0.35000000000000003      -0.03797669739924214     1
1.3250000000000002        0.35000000000000003      -0.03797896383399291     1
1.375                     0.35000000000000003      -0.03762345082129315     1
1.4249999999999998        0.35000000000000003      -0.03726793780859339     1
1.475                     0.35000000000000003      -0.03683567814906996     1
1.5250000000000004        0.35000000000000003      -0.036388302359457114    1
1.575                     0.35000000000000003      -0.036133732663039986    1
1.625                     0.35000000000000003      -0.03568198421289459     1
1.675                     0.35000000000000003      -0.03500676576921968     1
1.725                     0.35000000000000003      -0.034179588051964416    1
1.775                     0.35000000000000003      -0.0338070626889706      1
1.8250000000000002        0.35000000000000003      -0.033011295800064566    1
1.8749999999999998        0.35000000000000003      -0.03219810107802967     1
1.925                     0.35000000000000003      -0.03169287335155957     1
1.975                     0.35000000000000003      -0.030895862237363625    1
2.025                     0.35000000000000003      -0.02988785111610781     1
2.0749999999999997        0.35000000000000003      -0.02919133161138565     1
2.1250000000000004        0.35000000000000003      -0.0286452215907117      1
2.1750000000000003        0.35000000000000003      -0.02777770112300182     1
2.225                     0.35000000000000003      -0.026841219671407845    1
2.275                     0.35000000000000003      -0.02568999439488895     1
2.3249999999999993        0.35000000000000003      -0.025039718599300098    1
2.375                     0.35000000000000003      -0.024291976804684978    1
2.425                     0.35000000000000003      -0.023185454519040333    1
2.4749999999999996        0.35000000000000003      -0.02253267662112668     1
2.5250000000000004        0.35000000000000003      -0.0217677734553976      1
2.575                     0.35000000000000003      -0.021077345943194103    1
2.625                     0.35000000000000003      -0.020397525460554178    1
2.675                     0.35000000000000003      -0.01949535475064801     1
2.7249999999999996        0.35000000000000003      -0.018590560837405956    1
2.7750000000000004        0.35000000000000003      -0.017897939655352024    1
2.825                     0.35000000000000003      -0.0173519518223455      1
2.875                     0.35000000000000003      -0.016156728862370517    1
2.9250000000000007        0.35000000000000003      -0.014896063483195443    1
2.975                     0.35000000000000003      -0.014223360505319471    1
3.025                     0.35000000000000003      -0.013477866747508616    1
3.0749999999999997        0.35000000000000003      -0.012732372989697094    1
3.1249999999999996        0.35000000000000003      -0.011673413086327633    1
3.1750000000000003        0.35000000000000003      -0.010925593917320064    1
3.225                     0.35000000000000003      -0.010177774748313606    1
3.275                     0.35000000000000003      -0.009429955579306148    1
3.3249999999999997        0.35000000000000003      -0.008398193571077073    1
3.3750000000000004        0.35000000000000003      -0.0076863569148333255   1
3.4250000000000003        0.35000000000000003      -0.006974520258586914    1
3.475                     0.35000000000000003      -0.006262683602340502    1