% Model:              nc_magnet_1.mph
% Version:            COMSOL 6.2.0.415
% Date:               Feb 3 2025, 10:42
% Dimension:          2
% Nodes:              3000
% Expressions:        2
% Description:        Point
% cpl8x                   cpl8y                    Magnetic flux density, y-component Radius
-0.475                    0.05                     -1.9749586742946051E-4   1
-0.425                    0.05                     -1.0389595603752314E-4   1
-0.375                    0.05                     -1.0296044645502489E-5   1
-0.32499999999999996      0.05                     6.973578831864086E-5     1
-0.275                    0.05                     1.3964116996872944E-4    1
-0.22499999999999998      0.05                     2.764387941080193E-4     1
-0.17500000000000004      0.05                     5.221604413274683E-4     1
-0.12500000000000006      0.05                     6.153871958665125E-4     1
-0.07500000000000001      0.05                     5.573493519819284E-4     1
-0.025000000000000022     0.05                     6.21516065943073E-4      1
0.024999999999999967      0.05                     0.6606242784698083       1
0.07500000000000007       0.05                     0.6256723197346676       1
0.125                     0.05                     0.6788929362762622       1
0.17500000000000004       0.05                     0.587456663697147        1
0.22499999999999998       0.05                     0.5318243359759696       1
0.275                     0.05                     0.6413715509118603       1
0.32500000000000007       0.05                     0.6519044718691073       1
0.375                     0.05                     0.6974630889791562       1
0.42500000000000004       0.05                     0.7007594449075218       1
0.4750000000000001        0.05                     0.711832911758286        1
0.5249999999999999        0.05                     0.7144189211429448       1
0.575                     0.05                     0.7686185139456225       1
0.625                     0.05                     0.7704593556437052       1
0.6749999999999998        0.05                     0.812365353674551        1
0.7250000000000001        0.05                     0.8193559431297529       1
0.7749999999999999        0.05                     0.8263465325849564       1
0.8250000000000002        0.05                     0.8333371220401603       1
0.875                     0.05                     0.806553417595542        1
0.9249999999999999        0.05                     0.8493953285059979       1
0.9749999999999999        0.05                     0.8108724116628965       1
1.025                     0.05                     0.9189848008504733       1
1.075                     0.05                     0.930891724367864        1
1.125                     0.05                     0.9427986478852534       1
1.175                     0.05                     0.9547055714026431       1
1.2249999999999996        0.05                     0.966612494920034        1
1.275                     0.05                     0.9785194184374255       1
1.3250000000000002        0.05                     0.9904263419548163       1
1.375                     0.05                     1.0218319760909205       1
1.4249999999999998        0.05                     1.0710724142206776       1
1.475                     0.05                     1.0790400522198815       1
1.5250000000000004        0.05                     1.0797259869838027       1
1.575                     0.05                     1.0838197971701722       1
1.625                     0.05                     1.0879136073565396       1
1.675                     0.05                     1.0920074175429086       1
1.725                     0.05                     1.0961012277292774       1
1.775                     0.05                     1.1001950379156458       1
1.8250000000000002        0.05                     1.2029111191693498       1
1.8749999999999998        0.05                     1.1913864460060373       1
1.925                     0.05                     1.2543398521619664       1
1.975                     0.05                     1.195909926726677        1
2.025                     0.05                     1.200972742393003        1
2.0749999999999997        0.05                     1.2060355580593283       1
2.1250000000000004        0.05                     1.2110983737256533       1
2.1750000000000003        0.05                     1.2161611893919793       1
2.225                     0.05                     1.221224005058305        1
2.275                     0.05                     1.2262868207246296       1
2.3249999999999993        0.05                     1.3368679731532378       1
2.375                     0.05                     1.4493771760822323       1
2.425                     0.05                     1.3825916848961017       1
2.4749999999999996        0.05                     1.3566168445830213       1
2.5250000000000004        0.05                     1.3671420421895975       1
2.575                     0.05                     1.3776672397961727       1
2.625                     0.05                     1.3881924374027497       1
2.675                     0.05                     1.3987176350093256       1
2.7249999999999996        0.05                     1.4092428326158997       1
2.7750000000000004        0.05                     1.4657564218519323       1
2.825                     0.05                     1.5069108990386557       1
2.875                     0.05                     1.5088758142565322       1
2.9250000000000007        0.05                     1.5108407294744097       1
2.975                     0.05                     1.4892020851522392       1
3.025                     0.05                     1.4911780789280678       1
3.0749999999999997        0.05                     1.4907478206246123       1
3.1249999999999996        0.05                     1.5026273411196824       1
3.1750000000000003        0.05                     1.514506861614752        1
3.225                     0.05                     1.5263863821098218       1
3.275                     0.05                     1.5308197288922967       1
3.3249999999999997        0.05                     1.54362272273009         1
3.3750000000000004        0.05                     1.5448399976047127       1
3.4250000000000003        0.05                     1.543730131859711        1
3.475                     0.05                     1.5355888825941526       1
3.525                     0.05                     1.5401717479635932       1
3.5749999999999993        0.05                     1.5447546133330348       1
3.625                     0.05                     1.549337478702476        1
3.675                     0.05                     1.553571025981209        1
3.7249999999999996        0.05                     1.553849751394027        1
3.7750000000000004        0.05                     1.551791289049852        1
3.825                     0.05                     1.5525902186872327       1
3.875                     0.05                     1.548785345113207        1
3.925                     0.05                     1.5449804715391806       1
3.9749999999999996        0.05                     1.545204217907217        1
4.0249999999999995        0.05                     7.84626967858415E-4      1
4.074999999999999         0.05                     4.7439931841219973E-4    1
4.125000000000001         0.05                     1.6417166896381952E-4    1
4.175000000000001         0.05                     -2.4242146524233732E-4   1
4.225                     0.05                     -5.963365720229596E-4    1
4.2749999999999995        0.05                     -6.774074447764011E-4    1
4.325                     0.05                     -7.903341298291025E-4    1
4.375                     0.05                     -9.231231246549232E-4    1
4.425                     0.05                     -0.0010559121194812227   1
4.475                     0.05                     -0.001188701114307411    1
-0.475                    0.15000000000000002      -1.8577307788916753E-4   1
-0.425                    0.15000000000000002      -1.391221863763087E-4    1
-0.375                    0.15000000000000002      -9.24712948634221E-5     1
-0.32499999999999996      0.15000000000000002      -4.458718327432498E-5    1
-0.275                    0.15000000000000002      9.221044086521468E-5     1
-0.22499999999999998      0.15000000000000002      2.290080650049764E-4     1
-0.17500000000000004      0.15000000000000002      2.3205197014830592E-4    1
-0.12500000000000006      0.15000000000000002      6.649786065272556E-4     1
-0.07500000000000001      0.15000000000000002      6.434132855153152E-4     1
-0.025000000000000022     0.15000000000000002      5.976070119253774E-4     1
0.024999999999999967      0.15000000000000002      0.21052437025131754      1
0.07500000000000007       0.15000000000000002      0.3603708336692084       1
0.125                     0.15000000000000002      0.4226134913795956       1
0.17500000000000004       0.15000000000000002      0.42453400760929116      1
0.22499999999999998       0.15000000000000002      0.46985788078918844      1
0.275                     0.15000000000000002      0.46398198020159886      1
0.32500000000000007       0.15000000000000002      0.4581060796140084       1
0.375                     0.15000000000000002      0.4505250764643858       1
0.42500000000000004       0.15000000000000002      0.5246893864710311       1
0.4750000000000001        0.15000000000000002      0.6098639104261486       1
0.5249999999999999        0.15000000000000002      0.6117047521242265       1
0.575                     0.15000000000000002      0.5400824129109225       1
0.625                     0.15000000000000002      0.5611765473088457       1
0.6749999999999998        0.15000000000000002      0.5822706817067691       1
0.7250000000000001        0.15000000000000002      0.5101398623703886       1
0.7749999999999999        0.15000000000000002      0.6776831253112721       1
0.8250000000000002        0.15000000000000002      0.7205250362217281       1
0.875                     0.15000000000000002      0.7522487924242234       1
0.9249999999999999        0.15000000000000002      0.7632999715723501       1
0.9749999999999999        0.15000000000000002      0.8030851122896119       1
1.025                     0.15000000000000002      0.7882182227273581       1
1.075                     0.15000000000000002      0.796345344530636        1
1.125                     0.15000000000000002      0.8933771320635562       1
1.175                     0.15000000000000002      0.9052840555809465       1
1.2249999999999996        0.15000000000000002      0.8764686734196588       1
1.275                     0.15000000000000002      0.9236478787561424       1
1.3250000000000002        0.15000000000000002      0.9165090601269683       1
1.375                     0.15000000000000002      0.929432540481325        1
1.4249999999999998        0.15000000000000002      0.909085560805038        1
1.475                     0.15000000000000002      1.0150799203076477       1
1.5250000000000004        0.15000000000000002      1.0230475583068532       1
1.575                     0.15000000000000002      1.0310151963060579       1
1.625                     0.15000000000000002      1.038982834305263        1
1.675                     0.15000000000000002      1.0437299565145501       1
1.725                     0.15000000000000002      1.0610302479778237       1
1.775                     0.15000000000000002      1.1198518554264032       1
1.8250000000000002        0.15000000000000002      1.1321819198691694       1
1.8749999999999998        0.15000000000000002      1.1591644833926638       1
1.925                     0.15000000000000002      1.1479265778695324       1
1.975                     0.15000000000000002      1.2281448214520636       1
2.025                     0.15000000000000002      1.223854396954727        1
2.0749999999999997        0.15000000000000002      1.185812344252359        1
2.1250000000000004        0.15000000000000002      1.1908751599186849       1
2.1750000000000003        0.15000000000000002      1.1959379755850095       1
2.225                     0.15000000000000002      1.2010007912513345       1
2.275                     0.15000000000000002      1.3072410580357963       1
2.3249999999999993        0.15000000000000002      1.3240251954675384       1
2.375                     0.15000000000000002      1.2854052920147159       1
2.425                     0.15000000000000002      1.3728729082161568       1
2.4749999999999996        0.15000000000000002      1.3739141299247617       1
2.5250000000000004        0.15000000000000002      1.3475002986437743       1
2.575                     0.15000000000000002      1.3580254962503517       1
2.625                     0.15000000000000002      1.3685506938569278       1
2.675                     0.15000000000000002      1.379075891463502        1
2.7249999999999996        0.15000000000000002      1.449442226491539        1
2.7750000000000004        0.15000000000000002      1.4589187500773075       1
2.825                     0.15000000000000002      1.4683952736630754       1
2.875                     0.15000000000000002      1.4801477867823727       1
2.9250000000000007        0.15000000000000002      1.4821237805582026       1
2.975                     0.15000000000000002      1.4840997743340303       1
3.025                     0.15000000000000002      1.4860757681098584       1
3.0749999999999997        0.15000000000000002      1.4880517618856866       1
3.1249999999999996        0.15000000000000002      1.4900277556615145       1
3.1750000000000003        0.15000000000000002      1.4920037494373428       1
3.225                     0.15000000000000002      1.506551177108155        1
3.275                     0.15000000000000002      1.5182716817389703       1
3.3249999999999997        0.15000000000000002      1.5299921863697872       1
3.3750000000000004        0.15000000000000002      1.532250990326886        1
3.4250000000000003        0.15000000000000002      1.5326242027007897       1
3.475                     0.15000000000000002      1.5329974150746941       1
3.525                     0.15000000000000002      1.5627258258678396       1
3.5749999999999993        0.15000000000000002      1.545683142161402        1
3.625                     0.15000000000000002      1.550901650575673        1
3.675                     0.15000000000000002      1.5458201725500413       1
3.7249999999999996        0.15000000000000002      1.5459437905448856       1
3.7750000000000004        0.15000000000000002      1.5555539280420199       1
3.825                     0.15000000000000002      1.5640822045310458       1
3.875                     0.15000000000000002      1.5564793659399663       1
3.925                     0.15000000000000002      1.5475253712939332       1
3.9749999999999996        0.15000000000000002      1.5517268455482531       1
4.0249999999999995        0.15000000000000002      8.450641688079186E-4     1
4.074999999999999         0.15000000000000002      4.867943463733315E-4     1
4.125000000000001         0.15000000000000002      1.6317815933031277E-4    1
4.175000000000001         0.15000000000000002      -1.637732980799278E-4    1
4.225                     0.15000000000000002      -3.251554547140101E-4    1
4.2749999999999995        0.15000000000000002      -6.789469797626735E-4    1
4.325                     0.15000000000000002      -7.827872681628323E-4    1
4.375                     0.15000000000000002      -8.934352773888043E-4    1
4.425                     0.15000000000000002      -9.894254211031406E-4    1
4.475                     0.15000000000000002      -0.0011222144159293845   1
-0.475                    0.25                     -1.3681768028739577E-4   1
-0.425                    0.25                     -3.791285266947879E-4    1
-0.375                    0.25                     -2.3137722900216928E-4   1
-0.32499999999999996      0.25                     -8.362593131023242E-5    1
-0.275                    0.25                     6.412536638196204E-5     1
-0.22499999999999998      0.25                     2.118766640744783E-4     1
-0.17500000000000004      0.25                     3.596279617661246E-4     1
-0.12500000000000006      0.25                     -4.213608300007721E-5    1
-0.07500000000000001      0.25                     5.153407451709002E-4     1
-0.025000000000000022     0.25                     4.345899824178545E-4     1
0.024999999999999967      0.25                     0.16298627967425183      1
0.07500000000000007       0.25                     0.11642928134291913      1
0.125                     0.25                     0.03852971579099618      1
0.17500000000000004       0.25                     0.11219112297705203      1
0.22499999999999998       0.25                     0.14023159583543754      1
0.275                     0.25                     0.1439695774100107       1
0.32500000000000007       0.25                     0.17527757669533928      1
0.375                     0.25                     0.20989214675070866      1
0.42500000000000004       0.25                     0.2374333986391315       1
0.4750000000000001        0.25                     0.2690899398449762       1
0.5249999999999999        0.25                     0.3291134593218592       1
0.575                     0.25                     0.38913697879874176      1
0.625                     0.25                     0.4832622422958786       1
0.6749999999999998        0.25                     0.49188070534265593      1
0.7250000000000001        0.25                     0.5192262859698453       1
0.7749999999999999        0.25                     0.5465718665970285       1
0.8250000000000002        0.25                     0.6119130848655923       1
0.875                     0.25                     0.6229642640137236       1
0.9249999999999999        0.25                     0.6340154431618552       1
0.9749999999999999        0.25                     0.6380002072693842       1
1.025                     0.25                     0.6846925751727184       1
1.075                     0.25                     0.7313849430760562       1
1.125                     0.25                     0.699217320288859        1
1.175                     0.25                     0.7186948478101003       1
1.2249999999999996        0.25                     0.7982626638086636       1
1.275                     0.25                     0.8111861441630177       1
1.3250000000000002        0.25                     0.8241096245173716       1
1.375                     0.25                     0.8370331048717291       1
1.4249999999999998        0.25                     0.8499565852260833       1
1.475                     0.25                     0.8748440859213258       1
1.5250000000000004        0.25                     0.9590874263946191       1
1.575                     0.25                     0.9467789109298244       1
1.625                     0.25                     0.9191493767863027       1
1.675                     0.25                     0.9289052821451023       1
1.725                     0.25                     1.014154482601525        1
1.775                     0.25                     0.9804162800615258       1
1.8250000000000002        0.25                     0.9737679018884354       1
1.8749999999999998        0.25                     0.9773541813504009       1
1.925                     0.25                     1.034387164817802        1
1.975                     0.25                     1.0645567946459835       1
2.025                     0.25                     1.0947264244741683       1
2.0749999999999997        0.25                     1.1976593662448252       1
2.1250000000000004        0.25                     1.1933689417474913       1
2.1750000000000003        0.25                     1.1757147617780404       1
2.225                     0.25                     1.2776141429183565       1
2.275                     0.25                     1.2943982803500973       1
2.3249999999999993        0.25                     1.203593019724229        1
2.375                     0.25                     1.2184861339640862       1
2.425                     0.25                     1.2333792482039447       1
2.4749999999999996        0.25                     1.2482723624438026       1
2.5250000000000004        0.25                     1.3652365749534248       1
2.575                     0.25                     1.3383837527045288       1
2.625                     0.25                     1.4236515075453762       1
2.675                     0.25                     1.4331280311311456       1
2.7249999999999996        0.25                     1.442604554716914        1
2.7750000000000004        0.25                     1.3944420229985695       1
2.825                     0.25                     1.4049446611230048       1
2.875                     0.25                     1.4154472992474438       1
2.9250000000000007        0.25                     1.4367388963131211       1
2.975                     0.25                     1.4632359736233527       1
3.025                     0.25                     1.4809734572916495       1
3.0749999999999997        0.25                     1.4829494510674772       1
3.1249999999999996        0.25                     1.512264464177378        1
3.1750000000000003        0.25                     1.514210835134639        1
3.225                     0.25                     1.5161572060918975       1
3.275                     0.25                     1.5057236345856457       1
3.3249999999999997        0.25                     1.5107338805578188       1
3.3750000000000004        0.25                     1.5111070929317238       1
3.4250000000000003        0.25                     1.511480305305628        1
3.475                     0.25                     1.5118535176795334       1
3.525                     0.25                     1.5218508941563773       1
3.5749999999999993        0.25                     1.5261462149478524       1
3.625                     0.25                     1.522945676882112        1
3.675                     0.25                     1.5262621897074877       1
3.7249999999999996        0.25                     1.5263858077023351       1
3.7750000000000004        0.25                     1.5219015053262575       1
3.825                     0.25                     1.5344828685768164       1
3.875                     0.25                     1.5470642318273704       1
3.925                     0.25                     1.549321071949626        1
3.9749999999999996        0.25                     1.54976848296798         1
4.0249999999999995        0.25                     0.0010486917285611012    1
4.074999999999999         0.25                     5.042843472310571E-4     1
4.125000000000001         0.25                     1.3535283557575273E-6    1
4.175000000000001         0.25                     -1.6002862828012887E-4   1
4.225                     0.25                     -3.214107849138781E-4    1
4.2749999999999995        0.25                     -6.804865147484462E-4    1
4.325                     0.25                     -7.843268031483691E-4    1
4.375                     0.25                     -8.881670915481324E-4    1
4.425                     0.25                     -9.682178440737618E-4    1
4.475                     0.25                     -0.001048092375233567    1
-0.475                    0.35                     -4.4221998177952637E-4   1
-0.425                    0.35                     -3.2029592662810753E-4   1
-0.375                    0.35                     -3.5654794963931556E-4   1
-0.32499999999999996      0.35                     -2.537787540811279E-4    1
-0.275                    0.35                     -1.5100955852310593E-4   1
-0.22499999999999998      0.35                     -4.8240362965528034E-5   1
-0.17500000000000004      0.35                     5.452883259220338E-5     1
-0.12500000000000006      0.35                     2.60179347817191E-4      1
-0.07500000000000001      0.35                     4.056514714125825E-4     1
-0.025000000000000022     0.35                     5.51123595007752E-4      1
0.024999999999999967      0.35                     0.008814029174155635     1
0.07500000000000007       0.35                     0.024054236338048318     1
0.125                     0.35                     0.01833114082497095      1
0.17500000000000004       0.35                     0.055535123310593626     1
0.22499999999999998       0.35                     0.05460212715547619      1
0.275                     0.35                     0.047067924341240075     1
0.32500000000000007       0.35                     0.06148974105472594      1
0.375                     0.35                     0.05639468188545749      1
0.42500000000000004       0.35                     0.0625405319405552       1
0.4750000000000001        0.35                     0.06854692720459987      1
0.5249999999999999        0.35                     0.08687912131568573      1
0.575                     0.35                     0.09966711826169933      1
0.625                     0.35                     0.07730936144401483      1
0.6749999999999998        0.35                     0.14011774489665807      1
0.7250000000000001        0.35                     0.16746332552384424      1
0.7749999999999999        0.35                     0.1858644506109266       1
0.8250000000000002        0.35                     0.2557142555795059       1
0.875                     0.35                     0.32556406054808174      1
0.9249999999999999        0.35                     0.3954138655166568       1
0.9749999999999999        0.35                     0.35926992484178566      1
1.025                     0.35                     0.400444941040126        1
1.075                     0.35                     0.4416199572384655       1
1.125                     0.35                     0.463195602537526        1
1.175                     0.35                     0.5390937654337422       1
1.2249999999999996        0.35                     0.5749907781129989       1
1.275                     0.35                     0.596766478470903        1
1.3250000000000002        0.35                     0.631795419610893        1
1.375                     0.35                     0.6668243607508834       1
1.4249999999999998        0.35                     0.7018533018908751       1
1.475                     0.35                     0.7063896076552868       1
1.5250000000000004        0.35                     0.8720294162687678       1
1.575                     0.35                     0.7870244109535803       1
1.625                     0.35                     0.8961270453338803       1
1.675                     0.35                     0.9084571097766457       1
1.725                     0.35                     0.827225237614364        1
1.775                     0.35                     0.8527541144888979       1
1.8250000000000002        0.35                     0.8791803432158964       1
1.8749999999999998        0.35                     0.8827666226778654       1
1.925                     0.35                     0.9104479031342532       1
1.975                     0.35                     0.9510173815942533       1
2.025                     0.35                     0.9811870114224365       1
2.0749999999999997        0.35                     1.01135664125062         1
2.1250000000000004        0.35                     1.1714643355349252       1
2.1750000000000003        0.35                     1.3113505414929092       1
2.225                     0.35                     1.2647713652326558       1
2.275                     0.35                     1.1217807474337402       1
2.3249999999999993        0.35                     1.1366738616736          1
2.375                     0.35                     1.1515669759134572       1
2.425                     0.35                     1.166460090153316        1
2.4749999999999996        0.35                     1.1813532043931725       1
2.5250000000000004        0.35                     1.1962463186330334       1
2.575                     0.35                     1.456076236028356        1
2.625                     0.35                     1.4594290449582157       1
2.675                     0.35                     1.291194029878851        1
2.7249999999999996        0.35                     1.301696668003287        1
2.7750000000000004        0.35                     1.3121993061277248       1
2.825                     0.35                     1.3227019442521633       1
2.875                     0.35                     1.3332045823765994       1
2.9250000000000007        0.35                     1.3559738884925712       1
2.975                     0.35                     1.3824709658027992       1
3.025                     0.35                     1.414388026637395        1
3.0749999999999997        0.35                     1.4406278616349049       1
3.1249999999999996        0.35                     1.5023640709484791       1
3.1750000000000003        0.35                     1.5042121512072786       1
3.225                     0.35                     1.5060602314660807       1
3.275                     0.35                     1.4989325780580112       1
3.3249999999999997        0.35                     1.513150372835081        1
3.3750000000000004        0.35                     1.5149046541876225       1
3.4250000000000003        0.35                     1.517145978445623        1
3.475                     0.35                     1.505525580643023        1