% Model:              nc_magnet_1.mph
% Version:            COMSOL 6.2.0.415
% Date:               Feb 3 2025, 10:41
% Dimension:          2
% Nodes:              3000
% Expressions:        2
% Description:        Point
% cpl7x                   cpl7y                    Magnetic flux density, z-component Radius
-0.475                    0.05                     -3.3224655517537227E-4   1
-0.425                    0.05                     -9.96739665526103E-4     1
-0.37499999999999994      0.05                     -0.0016778512661999034   1
-0.32499999999999996      0.05                     -0.0023648287127263357   1
-0.2749999999999999       0.05                     -0.0032215861172759097   1
-0.22499999999999992      0.05                     -0.004191160530252258    1
-0.17499999999999993      0.05                     -0.00540582445834259     1
-0.12499999999999994      0.05                     -0.006700557353041647    1
-0.0749999999999999       0.05                     -0.008300574207091183    1
-0.02499999999999991      0.05                     -0.009763483530067063    1
0.025000000000000078      0.05                     -0.0202818366828299      1
0.07500000000000007       0.05                     -0.038982327657928986    1
0.1250000000000001        0.05                     -0.05540687322099824     1
0.17500000000000016       0.05                     -0.07234208498889427     1
0.2250000000000001        0.05                     -0.08732196323554187     1
0.27500000000000013       0.05                     -0.10488729751856152     1
0.3250000000000002        0.05                     -0.11010779202960919     1
0.3750000000000001        0.05                     -0.1286322505001734      1
0.42500000000000016       0.05                     -0.13962968042956403     1
0.4750000000000002        0.05                     -0.14747688458352748     1
0.5250000000000001        0.05                     -0.15520242666270967     1
0.5750000000000002        0.05                     -0.16292796874188964     1
0.6250000000000002        0.05                     -0.1727748409227724      1
0.675                     0.05                     -0.17340396765430977     1
0.7250000000000003        0.05                     -0.1791992411720883      1
0.7750000000000001        0.05                     -0.18310166386609428     1
0.8250000000000004        0.05                     -0.18700408656009815     1
0.8750000000000002        0.05                     -0.19723671537314225     1
0.9250000000000002        0.05                     -0.19707869206204892     1
0.9750000000000001        0.05                     -0.19885534555565854     1
1.0250000000000004        0.05                     -0.2006319990492671      1
1.0750000000000002        0.05                     -0.202408652542875       1
1.1250000000000004        0.05                     -0.20295455803296414     1
1.1750000000000003        0.05                     -0.20127692357786753     1
1.225                     0.05                     -0.19819157303558033     1
1.2750000000000001        0.05                     -0.19452093740485843     1
1.3250000000000002        0.05                     -0.19568115293832689     1
1.3750000000000004        0.05                     -0.19451449517026703     1
1.4250000000000003        0.05                     -0.19283644240400455     1
1.4750000000000005        0.05                     -0.18799030045357468     1
1.5250000000000004        0.05                     -0.18314415850314375     1
1.5750000000000004        0.05                     -0.17194198564634888     1
1.6250000000000004        0.05                     -0.16809292442088442     1
1.6750000000000005        0.05                     -0.1654076027253777      1
1.7250000000000005        0.05                     -0.16932853490402167     1
1.7750000000000004        0.05                     -0.16663608443703115     1
1.8250000000000006        0.05                     -0.16394363397003814     1
1.8750000000000002        0.05                     -0.15883623531181246     1
1.9250000000000005        0.05                     -0.1538332939202598      1
1.9750000000000005        0.05                     -0.14793708491377844     1
2.0250000000000004        0.05                     -0.14204087590729664     1
2.075                     0.05                     -0.13614466690081553     1
2.125000000000001         0.05                     -0.13627876203896339     1
2.1750000000000007        0.05                     -0.13144294033694198     1
2.2250000000000005        0.05                     -0.1261594211259094      1
2.2750000000000004        0.05                     -0.12087590191487552     1
2.325                     0.05                     -0.11559238270384409     1
2.3750000000000004        0.05                     -0.11030886349280955     1
2.4250000000000003        0.05                     -0.10502534428177679     1
2.475                     0.05                     -0.09827298605740335     1
2.5250000000000004        0.05                     -0.1025428730343767      1
2.5750000000000006        0.05                     -0.0991015351538147      1
2.6250000000000004        0.05                     -0.09422553788916321     1
2.6750000000000007        0.05                     -0.08934954062451084     1
2.7250000000000005        0.05                     -0.08447354335985935     1
2.775000000000001         0.05                     -0.07959754609520697     1
2.8250000000000006        0.05                     -0.07472154883055435     1
2.875000000000001         0.05                     -0.0691218237361082      1
2.9250000000000007        0.05                     -0.06537391391212383     1
2.9750000000000005        0.05                     -0.06554629585739609     1
3.0250000000000004        0.05                     -0.06194315640668167     1
3.0750000000000006        0.05                     -0.05834001695596626     1
3.1250000000000004        0.05                     -0.054736877505249484    1
3.1750000000000007        0.05                     -0.051133738054535555    1
3.2250000000000005        0.05                     -0.047204419014722776    1
3.275000000000001         0.05                     -0.04092776494209538     1
3.3250000000000006        0.05                     -0.037856733927535524    1
3.375000000000001         0.05                     -0.03478570291297545     1
3.4250000000000007        0.05                     -0.031714671898416036    1
3.475000000000001         0.05                     -0.02887380392895761     1
3.525000000000001         0.05                     -0.02588934219350697     1
3.575                     0.05                     -0.02230678746300141     1
3.6250000000000004        0.05                     -0.01821642782902        1
3.6750000000000007        0.05                     -0.013953807194837076    1
3.7250000000000005        0.05                     -0.010620141868501517    1
3.7750000000000004        0.05                     -0.007145367648101808    1
3.8250000000000006        0.05                     -0.0032866202971215674   1
3.875000000000001         0.05                     -3.4879299055606827E-4   1
3.9250000000000007        0.05                     0.002927804932784994     1
3.9750000000000005        0.05                     0.006148041731153242     1
4.025                     0.05                     0.007802425581661776     1
4.075000000000001         0.05                     0.007019766559150195     1
4.125000000000002         0.05                     0.005863217851186153     1
4.175000000000002         0.05                     0.004710314763842212     1
4.2250000000000005        0.05                     0.003865187048190444     1
4.275                     0.05                     0.0030401447259074676    1
4.325000000000001         0.05                     0.0023153155086769184    1
4.375000000000001         0.05                     0.0016299262041571394    1
4.425000000000001         0.05                     9.494884282914562E-4     1
4.4750000000000005        0.05                     3.3478178602508457E-4    1
-0.475                    0.15000000000000002      -1.8202913034404133E-4   1
-0.425                    0.15000000000000002      -8.690065768695021E-4    1
-0.37499999999999994      0.15000000000000002      -0.0015559840233946298   1
-0.32499999999999996      0.15000000000000002      -0.002325483685927443    1
-0.2749999999999999       0.15000000000000002      -0.0031896703479746824   1
-0.22499999999999992      0.15000000000000002      -0.004098461793568542    1
-0.17499999999999993      0.15000000000000002      -0.005406050124559414    1
-0.12499999999999994      0.15000000000000002      -0.006876979394370597    1
-0.0749999999999999       0.15000000000000002      -0.00875100544295293     1
-0.02499999999999991      0.15000000000000002      -0.010596052573859538    1
0.025000000000000078      0.15000000000000002      -0.021375650519294576    1
0.07500000000000007       0.15000000000000002      -0.04041569682501757     1
0.1250000000000001        0.15000000000000002      -0.058962000506790346    1
0.17500000000000016       0.15000000000000002      -0.0753173254678643      1
0.2250000000000001        0.15000000000000002      -0.09176891516548125     1
0.27500000000000013       0.15000000000000002      -0.10254454521032028     1
0.3250000000000002        0.15000000000000002      -0.11583167438295572     1
0.3750000000000001        0.15000000000000002      -0.1271355256921589      1
0.42500000000000016       0.15000000000000002      -0.14117315014744491     1
0.4750000000000002        0.15000000000000002      -0.1500368645655179      1
0.5250000000000001        0.15000000000000002      -0.15890057898358734     1
0.5750000000000002        0.15000000000000002      -0.16648318493872427     1
0.6250000000000002        0.15000000000000002      -0.17219669723186826     1
0.675                     0.15000000000000002      -0.17932370632276928     1
0.7250000000000003        0.15000000000000002      -0.18624455894952874     1
0.7750000000000001        0.15000000000000002      -0.18912381895883923     1
0.8250000000000004        0.15000000000000002      -0.19103298202659252     1
0.8750000000000002        0.15000000000000002      -0.19235893342396482     1
0.9250000000000002        0.15000000000000002      -0.19501796102304336     1
0.9750000000000001        0.15000000000000002      -0.1971264731381801      1
1.0250000000000004        0.15000000000000002      -0.1956907508565442      1
1.0750000000000002        0.15000000000000002      -0.19746740435014987     1
1.1250000000000004        0.15000000000000002      -0.19630452314187652     1
1.1750000000000003        0.15000000000000002      -0.19520007366183734     1
1.225                     0.15000000000000002      -0.1928200982471635      1
1.2750000000000001        0.15000000000000002      -0.1906598260447092      1
1.3250000000000002        0.15000000000000002      -0.18849955384225403     1
1.3750000000000004        0.15000000000000002      -0.1881351859068845      1
1.4250000000000003        0.15000000000000002      -0.1843383884645034      1
1.4750000000000005        0.15000000000000002      -0.18016554390095307     1
1.5250000000000004        0.15000000000000002      -0.17841149609359253     1
1.5750000000000004        0.15000000000000002      -0.17665744828623264     1
1.6250000000000004        0.15000000000000002      -0.17564609237479994     1
1.6750000000000005        0.15000000000000002      -0.17012170770996438     1
1.7250000000000005        0.15000000000000002      -0.16459732304512942     1
1.7750000000000004        0.15000000000000002      -0.16039688273433161     1
1.8250000000000006        0.15000000000000002      -0.15770443226733888     1
1.8750000000000002        0.15000000000000002      -0.15247003541642323     1
1.9250000000000005        0.15000000000000002      -0.14715395862766378     1
1.9750000000000005        0.15000000000000002      -0.14183788183889945     1
2.0250000000000004        0.15000000000000002      -0.14079420566457568     1
2.075                     0.15000000000000002      -0.13773424098132114     1
2.125000000000001         0.15000000000000002      -0.13362998425099537     1
2.1750000000000007        0.15000000000000002      -0.1299640681698664      1
2.2250000000000005        0.15000000000000002      -0.12565341873114022     1
2.2750000000000004        0.15000000000000002      -0.12036989952010702     1
2.325                     0.15000000000000002      -0.11508638030907525     1
2.3750000000000004        0.15000000000000002      -0.10980286109803927     1
2.4250000000000003        0.15000000000000002      -0.10990805694233075     1
2.475                     0.15000000000000002      -0.10632918454400597     1
2.5250000000000004        0.15000000000000002      -0.10256006342973029     1
2.5750000000000006        0.15000000000000002      -0.09851934266339146     1
2.6250000000000004        0.15000000000000002      -0.09447862189705702     1
2.6750000000000007        0.15000000000000002      -0.09002924400016049     1
2.7250000000000005        0.15000000000000002      -0.08387582832506729     1
2.775000000000001         0.15000000000000002      -0.07899983106041408     1
2.8250000000000006        0.15000000000000002      -0.0726330683404246      1
2.875000000000001         0.15000000000000002      -0.07367831521544344     1
2.9250000000000007        0.15000000000000002      -0.06984604269062888     1
2.9750000000000005        0.15000000000000002      -0.06607409989767943     1
3.0250000000000004        0.15000000000000002      -0.06259801147858692     1
3.0750000000000006        0.15000000000000002      -0.05899487202787052     1
3.1250000000000004        0.15000000000000002      -0.05539173257715567     1
3.1750000000000007        0.15000000000000002      -0.05136193652870084     1
3.2250000000000005        0.15000000000000002      -0.04713956414638576     1
3.275000000000001         0.15000000000000002      -0.04295875805625515     1
3.3250000000000006        0.15000000000000002      -0.039410997282033566    1
3.375000000000001         0.15000000000000002      -0.03586323650781331     1
3.4250000000000007        0.15000000000000002      -0.03172547451505381     1
3.475000000000001         0.15000000000000002      -0.028690786684877706    1
3.525000000000001         0.15000000000000002      -0.024585342486401263    1
3.575                     0.15000000000000002      -0.021833851434436127    1
3.6250000000000004        0.15000000000000002      -0.018093700796731005    1
3.6750000000000007        0.15000000000000002      -0.014440968217705241    1
3.7250000000000005        0.15000000000000002      -0.01078823563868328     1
3.7750000000000004        0.15000000000000002      -0.0071479170050795515   1
3.8250000000000006        0.15000000000000002      -0.003679055777764284    1
3.875000000000001         0.15000000000000002      -1.441850063739203E-4    1
3.9250000000000007        0.15000000000000002      0.0030710046124315937    1
3.9750000000000005        0.15000000000000002      0.006237764502941667     1
4.025                     0.15000000000000002      0.007909583889919247     1
4.075000000000001         0.15000000000000002      0.007055626272063437     1
4.125000000000002         0.15000000000000002      0.005925072884193583     1
4.175000000000002         0.15000000000000002      0.004861341928130258     1
4.2250000000000005        0.15000000000000002      0.00392973522820661      1
4.275                     0.15000000000000002      0.0030468309081158607    1
4.325000000000001         0.15000000000000002      0.0023170894519584095    1
4.375000000000001         0.15000000000000002      0.001655014798399801     1
4.425000000000001         0.15000000000000002      0.0010043453580754758    1
4.4750000000000005        0.15000000000000002      3.347817860251401E-4     1
-0.475                    0.25                     -1.7404736987858271E-4   1
-0.425                    0.25                     -7.87010036909841E-4     1
-0.37499999999999994      0.25                     -0.0013645047904292974   1
-0.32499999999999996      0.25                     -0.0020493967919937295   1
-0.2749999999999999       0.25                     -0.0027342887935588034   1
-0.22499999999999992      0.25                     -0.0036166081749660905   1
-0.17499999999999993      0.25                     -0.005016430167872232    1
-0.12499999999999994      0.25                     -0.006723727903649002    1
-0.0749999999999999       0.25                     -0.00976059749365743     1
-0.02499999999999991      0.25                     -0.013456283533562414    1
0.025000000000000078      0.25                     -0.02865821916012834     1
0.07500000000000007       0.25                     -0.046367789736947884    1
0.1250000000000001        0.25                     -0.0640935228189976      1
0.17500000000000016       0.25                     -0.07979318980887484     1
0.2250000000000001        0.25                     -0.08944931681942236     1
0.27500000000000013       0.25                     -0.10797951287004448     1
0.3250000000000002        0.25                     -0.1186293543767416      1
0.3750000000000001        0.25                     -0.13125831371426555     1
0.42500000000000016       0.25                     -0.1420195766256137      1
0.4750000000000002        0.25                     -0.15123245116677708     1
0.5250000000000001        0.25                     -0.15952288967903172     1
0.5750000000000002        0.25                     -0.1666248265843997      1
0.6250000000000002        0.25                     -0.17314475752034575     1
0.675                     0.25                     -0.17848253311643525     1
0.7250000000000003        0.25                     -0.1828007757017609      1
0.7750000000000001        0.25                     -0.1897569278342104      1
0.8250000000000004        0.25                     -0.1922147863944179      1
0.8750000000000002        0.25                     -0.1923191404959521      1
0.9250000000000002        0.25                     -0.1950823351556794      1
0.9750000000000001        0.25                     -0.19719084727082237     1
1.0250000000000004        0.25                     -0.1992993593859662      1
1.0750000000000002        0.25                     -0.1955955887506038      1
1.1250000000000004        0.25                     -0.1972926680557412      1
1.1750000000000003        0.25                     -0.19567333547227328     1
1.225                     0.25                     -0.19543551856119445     1
1.2750000000000001        0.25                     -0.19363724561576623     1
1.3250000000000002        0.25                     -0.1916200409890647      1
1.3750000000000004        0.25                     -0.18811776321617457     1
1.4250000000000003        0.25                     -0.18626909364105693     1
1.4750000000000005        0.25                     -0.18400696571452402     1
1.5250000000000004        0.25                     -0.1800528520180369      1
1.5750000000000004        0.25                     -0.1783627304769595      1
1.6250000000000004        0.25                     -0.17438945552342933     1
1.6750000000000005        0.25                     -0.17107550447730357     1
1.7250000000000005        0.25                     -0.16776155343117516     1
1.7750000000000004        0.25                     -0.16249423019430687     1
1.8250000000000006        0.25                     -0.15597144859146894     1
1.8750000000000002        0.25                     -0.15208056848839235     1
1.9250000000000005        0.25                     -0.14890052108773766     1
1.9750000000000005        0.25                     -0.14572047368708319     1
2.0250000000000004        0.25                     -0.14223005141629974     1
2.075                     0.25                     -0.13957092051849784     1
2.125000000000001         0.25                     -0.13551836124828975     1
2.1750000000000007        0.25                     -0.13103087070883568     1
2.2250000000000005        0.25                     -0.12712435219640028     1
2.2750000000000004        0.25                     -0.12280775858677834     1
2.325                     0.25                     -0.11958250719221786     1
2.3750000000000004        0.25                     -0.11402613314953669     1
2.4250000000000003        0.25                     -0.11044726075120614     1
2.475                     0.25                     -0.1068683883528796      1
2.5250000000000004        0.25                     -0.10321938443589646     1
2.5750000000000006        0.25                     -0.09917866366955863     1
2.6250000000000004        0.25                     -0.0951379429032233      1
2.6750000000000007        0.25                     -0.09109722213688709     1
2.7250000000000005        0.25                     -0.0870565013705491      1
2.775000000000001         0.25                     -0.08200136971038291     1
2.8250000000000006        0.25                     -0.07758357631534091     1
2.875000000000001         0.25                     -0.07375130379052841     1
2.9250000000000007        0.25                     -0.06991903126571053     1
2.9750000000000005        0.25                     -0.06597179828795108     1
3.0250000000000004        0.25                     -0.06317154381197354     1
3.0750000000000006        0.25                     -0.05937990516645873     1
3.1250000000000004        0.25                     -0.05519402324997419     1
3.1750000000000007        0.25                     -0.051008141333490145    1
3.2250000000000005        0.25                     -0.04549221114678015     1
3.275000000000001         0.25                     -0.04054910503724862     1
3.3250000000000006        0.25                     -0.035605998927715654    1
3.375000000000001         0.25                     -0.035203608456956914    1
3.4250000000000007        0.25                     -0.031883672550470976    1
3.475000000000001         0.25                     -0.027705241198537678    1
3.525000000000001         0.25                     -0.024572393400051684    1
3.575                     0.25                     -0.020423551710731402    1
3.6250000000000004        0.25                     -0.016262073641837738    1
3.6750000000000007        0.25                     -0.011998789170769797    1
3.7250000000000005        0.25                     -0.010868201254626245    1
3.7750000000000004        0.25                     -0.007163494981230312    1
3.8250000000000006        0.25                     -0.003458788707826621    1
3.875000000000001         0.25                     3.5116684527380926E-5    1
3.9250000000000007        0.25                     0.0033237472087506766    1
3.9750000000000005        0.25                     0.0064379591162939676    1
4.025                     0.25                     0.00787753174896011      1
4.075000000000001         0.25                     0.007203334550940355     1
4.125000000000002         0.25                     0.0059924150386510555    1
4.175000000000002         0.25                     0.004879570234677277     1
4.2250000000000005        0.25                     0.003901793666281017     1
4.275                     0.25                     0.0030409726811846394    1
4.325000000000001         0.25                     0.002351100657546845     1
4.375000000000001         0.25                     0.001489051040917344     1
4.425000000000001         0.25                     8.934306245504398E-4     1
4.4750000000000005        0.25                     2.978102081837575E-4     1
-0.475                    0.35                     -1.294421913176011E-4    1
-0.425                    0.35                     -5.330703010630877E-4    1
-0.37499999999999994      0.35                     -8.709830093713566E-4    1
-0.32499999999999996      0.35                     -0.0013519877105371836   1
-0.2749999999999999       0.35                     -0.0019309754536729618   1
-0.22499999999999992      0.35                     -0.002679948099549301    1
-0.17499999999999993      0.35                     -0.0036775848079368956   1
-0.12499999999999994      0.35                     -0.004668229593675743    1
-0.0749999999999999       0.35                     -0.00607166750333743     1
-0.02499999999999991      0.35                     -0.007007372218286512    1
0.025000000000000078      0.35                     -0.005450097873502813    1
0.07500000000000007       0.35                     -0.0035910033344155323   1
0.1250000000000001        0.35                     -0.003075385608610759    1
0.17500000000000016       0.35                     -0.003191426479915549    1
0.2250000000000001        0.35                     -0.0032857063959639277   1
0.27500000000000013       0.35                     -0.0033219219037547987   1
0.3250000000000002        0.35                     -0.12273821419151076     1
0.3750000000000001        0.35                     -0.13407262160779254     1
0.42500000000000016       0.35                     -0.14349710740584598     1
0.4750000000000002        0.35                     -0.15237397029755995     1
0.5250000000000001        0.35                     -0.16046965226504817     1
0.5750000000000002        0.35                     -0.16732888350216513     1
0.6250000000000002        0.35                     -0.17351438311563872     1
0.675                     0.35                     -0.17849831449084297     1
0.7250000000000003        0.35                     -0.18295818304060363     1
0.7750000000000001        0.35                     -0.1864362572520406      1
0.8250000000000004        0.35                     -0.19064585978599968     1
0.8750000000000002        0.35                     -0.19323176168671719     1
0.9250000000000002        0.35                     -0.19541153638652276     1
0.9750000000000001        0.35                     -0.19647085379745566     1
1.0250000000000004        0.35                     -0.19689709180199255     1
1.0750000000000002        0.35                     -0.19536257567858062     1
1.1250000000000004        0.35                     -0.19695700722488318     1
1.1750000000000003        0.35                     -0.19498226624373727     1
1.225                     0.35                     -0.19359613412604273     1
1.2750000000000001        0.35                     -0.19163543334595357     1
1.3250000000000002        0.35                     -0.18801231910995525     1
1.3750000000000004        0.35                     -0.18837718313351504     1
1.4250000000000003        0.35                     -0.1845151565074259      1
1.4750000000000005        0.35                     -0.18315534957715585     1
1.5250000000000004        0.35                     -0.17900708108934493     1
1.5750000000000004        0.35                     -0.17616478234468527     1
1.6250000000000004        0.35                     -0.1726645978876229      1
1.6750000000000005        0.35                     -0.1686458069174419      1
1.7250000000000005        0.35                     -0.1645672238865572      1
1.7750000000000004        0.35                     -0.1620626283442147      1
1.8250000000000006        0.35                     -0.15856894811421213     1
1.8750000000000002        0.35                     -0.15486185649982542     1
1.9250000000000005        0.35                     -0.15094178780929535     1
1.9750000000000005        0.35                     -0.146894285988447       1
2.0250000000000004        0.35                     -0.1425930312002467      1
2.075                     0.35                     -0.1373304972220275      1
2.125000000000001         0.35                     -0.13361757595401924     1
2.1750000000000007        0.35                     -0.1295650166838187      1
2.2250000000000005        0.35                     -0.1262112545242861      1
2.2750000000000004        0.35                     -0.12215399485085238     1
2.325                     0.35                     -0.11801089496479977     1
2.3750000000000004        0.35                     -0.11574849226149553     1
2.4250000000000003        0.35                     -0.10860210616524235     1
2.475                     0.35                     -0.10518036803897579     1
2.5250000000000004        0.35                     -0.10161397723692511     1
2.5750000000000006        0.35                     -0.09805877301173294     1
2.6250000000000004        0.35                     -0.09321829197122056     1
2.6750000000000007        0.35                     -0.08851070167932429     1
2.7250000000000005        0.35                     -0.0848306023589771      1
2.775000000000001         0.35                     -0.08054823842840397     1
2.8250000000000006        0.35                     -0.07691395020422309     1
2.875000000000001         0.35                     -0.07346274066672853     1
2.9250000000000007        0.35                     -0.0691277315968356      1
2.9750000000000005        0.35                     -0.06455541217115963     1
3.0250000000000004        0.35                     -0.06106472560138443     1
3.0750000000000006        0.35                     -0.05728986690014809     1
3.1250000000000004        0.35                     -0.05212658846951079     1
3.1750000000000007        0.35                     -0.04836512928786063     1
3.2250000000000005        0.35                     -0.04326166366865314     1
3.275000000000001         0.35                     -0.04389773356866655     1
3.3250000000000006        0.35                     -0.03979515759420327     1
3.375000000000001         0.35                     -0.035692581619736874    1
3.4250000000000007        0.35                     -0.03159000564527048     1
3.475000000000001         0.35                     -0.027956999348108358    1