% Model:              cross_talk_new.mph
% Version:            COMSOL 6.2.0.415
% Date:               Feb 3 2025, 16:23
% Dimension:          2
% Nodes:              3000
% Expressions:        2
% Description:        Point
% cpl2x                   cpl2y                    Magnetic flux density, y-component Radius
-1.9219                   0.05                     -0.0022692355294876843   1
-1.7657                   0.05                     -0.0022994357179283425   1
-1.6095                   0.05                     -0.002335212449132212    1
-1.4532999999999998       0.05                     -0.0024235254631989195   1
-1.2971                   0.05                     -0.002542345182426513    1
-1.1408999999999998       0.05                     -0.0026673744641178      1
-0.9847                   0.05                     -0.0028718423475105163   1
-0.8285                   0.05                     -0.003098248336692479    1
-0.6722999999999999       0.05                     -0.003389950699042306    1
-0.5161                   0.05                     -0.003757106484146608    1
-0.3598999999999999       0.05                     -0.0042067283988897475   1
-0.20369999999999977      0.05                     -0.004750063249714498    1
-0.047499999999999876     0.05                     -0.005350601828670032    1
0.10870000000000024       0.05                     1.4414131353878745       1
0.26490000000000014       0.05                     1.4407771211606832       1
0.42110000000000003       0.05                     1.4396696854589084       1
0.5773000000000001        0.05                     1.4379808935934932       1
0.7335000000000003        0.05                     1.4361487153464911       1
0.8897000000000004        0.05                     1.4336556054685927       1
1.0459000000000005        0.05                     1.4306965648349503       1
1.2021                    0.05                     1.4269874024812381       1
1.3583                    0.05                     1.4240501422695482       1
1.5145000000000002        0.05                     1.419226738943598        1
1.6706999999999999        0.05                     1.413950655500613        1
1.8269                    0.05                     1.4098577924199898       1
1.9831000000000005        0.05                     1.403792594301302        1
2.1393000000000004        0.05                     1.3956176809209506       1
2.2955000000000005        0.05                     1.3893050952228967       1
2.4516999999999998        0.05                     1.3821468147774338       1
2.6079                    0.05                     1.3726290633146876       1
2.7641000000000004        0.05                     1.360136958085982        1
2.9203                    0.05                     1.3539996095016353       1
3.0765000000000007        0.05                     1.3349494847204662       1
3.2327000000000004        0.05                     1.314680542518098        1
3.3889                    0.05                     1.2903724782066328       1
3.5450999999999997        0.05                     1.2583061478196331       1
3.7013000000000003        0.05                     1.2029445679684156       1
3.8575                    0.05                     1.091761662947408        1
4.0137                    0.05                     0.8907375976610556       1
4.169900000000001         0.05                     0.5635453354428175       1
4.3261                    0.05                     0.6595381307067676       1
4.4823                    0.05                     1.0778130286605077       1
4.6385000000000005        0.05                     1.4540163718181809       1
4.794700000000001         0.05                     1.8221650324071952       1
4.950900000000001         0.05                     2.200529910808206        1
5.107100000000001         0.05                     2.449101530546723        1
5.263300000000001         0.05                     2.547223083099868        1
5.4195                    0.05                     2.6507044604609504       1
5.5757                    0.05                     2.7254015792941453       1
5.7319                    0.05                     2.7131885085736775       1
5.8881000000000006        0.05                     2.7098437919893827       1
6.044300000000001         0.05                     2.7849646333802993       1
6.200500000000001         0.05                     2.9051200313153687       1
6.356700000000001         0.05                     2.7799556323618684       1
6.512900000000001         0.05                     3.088236541278564        1
6.669100000000001         0.05                     2.830199705861513        1
6.8252999999999995        0.05                     2.8258541005632654       1
6.9815000000000005        0.05                     2.8191358509204316       1
7.1377                    0.05                     2.809944484920911        1
7.293899999999999         0.05                     2.8268193433281312       1
7.4501                    0.05                     2.8416712556119097       1
7.606300000000001         0.05                     2.8473835711432622       1
7.762500000000001         0.05                     2.8289510070337784       1
7.918700000000001         0.05                     2.855426318178105        1
8.0749                    0.05                     2.8443893515027363       1
8.231100000000001         0.05                     2.8340469705871545       1
8.387300000000002         0.05                     2.8442480950940716       1
8.543500000000002         0.05                     2.8442752678414953       1
8.6997                    0.05                     2.9224934239232927       1
8.8559                    0.05                     2.8536646920718014       1
9.0121                    0.05                     2.9146563531850145       1
9.1683                    0.05                     2.8471012440756738       1
9.3245                    0.05                     2.9318942269744244       1
9.4807                    0.05                     2.8986056261055415       1
9.6369                    0.05                     2.865173079365248        1
9.7931                    0.05                     2.939140637015179        1
9.949300000000001         0.05                     2.8877206552909125       1
10.105500000000001        0.05                     2.9382448333990454       1
10.261700000000001        0.05                     2.870395233941692        1
10.417900000000001        0.05                     2.942344637437086        1
10.574100000000001        0.05                     2.951294173728889        1
10.7303                   0.05                     2.944968593483039        1
10.8865                   0.05                     2.9197551674049556       1
11.0427                   0.05                     2.841857999429102        1
11.1989                   0.05                     2.762428620457399        1
11.3551                   0.05                     2.6364527849046193       1
11.5113                   0.05                     2.532695309505238        1
11.6675                   0.05                     0.30237399412923516      1
11.8237                   0.05                     0.12445147329011286      1
11.9799                   0.05                     -0.015121130580099305    1
12.136100000000003        0.05                     -0.07943320721586344     1
12.292300000000001        0.05                     -0.10326271750362803     1
12.448500000000001        0.05                     -0.10923064433381527     1
12.604700000000001        0.05                     -0.1015122869499053      1
12.760900000000001        0.05                     -0.10011101608313457     1
12.917100000000001        0.05                     -0.09462361891200094     1
13.0733                   0.05                     -0.08516695886599493     1
13.2295                   0.05                     -0.0820497931691532      1
13.385700000000002        0.05                     -0.08068256931772866     1
13.541900000000002        0.05                     -0.07805339843519038     1
-1.9219                   0.15000000000000002      -0.002263245512017979    1
-1.7657                   0.15000000000000002      -0.0023045068921311897   1
-1.6095                   0.15000000000000002      -0.002342501042242688    1
-1.4532999999999998       0.15000000000000002      -0.002420202385109378    1
-1.2971                   0.15000000000000002      -0.0025250959635712555   1
-1.1408999999999998       0.15000000000000002      -0.0026712129608206375   1
-0.9847                   0.15000000000000002      -0.002863193373904449    1
-0.8285                   0.15000000000000002      -0.003096618650607036    1
-0.6722999999999999       0.15000000000000002      -0.003387209174784911    1
-0.5161                   0.15000000000000002      -0.003764341941469712    1
-0.3598999999999999       0.15000000000000002      -0.004203469531474045    1
-0.20369999999999977      0.15000000000000002      -0.004738399923566616    1
-0.047499999999999876     0.15000000000000002      -0.0053496657707947926   1
0.10870000000000024       0.15000000000000002      1.441450730475639        1
0.26490000000000014       0.15000000000000002      1.4408237523059908       1
0.42110000000000003       0.15000000000000002      1.4397419010592998       1
0.5773000000000001        0.15000000000000002      1.4381279825051916       1
0.7335000000000003        0.15000000000000002      1.4361226376210905       1
0.8897000000000004        0.15000000000000002      1.4337711123617098       1
1.0459000000000005        0.15000000000000002      1.4305681821667555       1
1.2021                    0.15000000000000002      1.4274093836249695       1
1.3583                    0.15000000000000002      1.4234613664289948       1
1.5145000000000002        0.15000000000000002      1.4192374378453116       1
1.6706999999999999        0.15000000000000002      1.4139620338534367       1
1.8269                    0.15000000000000002      1.4087955152093898       1
1.9831000000000005        0.15000000000000002      1.4029997460425372       1
2.1393000000000004        0.15000000000000002      1.3960461514622162       1
2.2955000000000005        0.15000000000000002      1.3894744655970928       1
2.4516999999999998        0.15000000000000002      1.381538802729003        1
2.6079                    0.15000000000000002      1.3716075415555364       1
2.7641000000000004        0.15000000000000002      1.362062765462961        1
2.9203                    0.15000000000000002      1.3496792298476303       1
3.0765000000000007        0.15000000000000002      1.335198797678232        1
3.2327000000000004        0.15000000000000002      1.3204902377143717       1
3.3889                    0.15000000000000002      1.2885818877846003       1
3.5450999999999997        0.15000000000000002      1.263314175832127        1
3.7013000000000003        0.15000000000000002      1.1997943498601549       1
3.8575                    0.15000000000000002      1.1032976752067127       1
4.0137                    0.15000000000000002      0.8809606868415887       1
4.169900000000001         0.15000000000000002      0.5846215718826338       1
4.3261                    0.15000000000000002      0.6401954664951669       1
4.4823                    0.15000000000000002      1.0446170016243368       1
4.6385000000000005        0.15000000000000002      1.3988803451605847       1
4.794700000000001         0.15000000000000002      1.7375707939525213       1
4.950900000000001         0.15000000000000002      2.089077407568471        1
5.107100000000001         0.15000000000000002      2.252077828522522        1
5.263300000000001         0.15000000000000002      2.405954090255631        1
5.4195                    0.15000000000000002      2.4576531857561834       1
5.5757                    0.15000000000000002      2.484414810148266        1
5.7319                    0.15000000000000002      2.523116299941437        1
5.8881000000000006        0.15000000000000002      2.593805092572809        1
6.044300000000001         0.15000000000000002      2.5595877346768385       1
6.200500000000001         0.15000000000000002      2.5972291907492346       1
6.356700000000001         0.15000000000000002      2.5567303690634025       1
6.512900000000001         0.15000000000000002      2.5562654810236873       1
6.669100000000001         0.15000000000000002      2.537931169685808        1
6.8252999999999995        0.15000000000000002      2.635159869915154        1
6.9815000000000005        0.15000000000000002      2.64367824358236         1
7.1377                    0.15000000000000002      2.6697513592721083       1
7.293899999999999         0.15000000000000002      2.6472853980105233       1
7.4501                    0.15000000000000002      2.629439742482934        1
7.606300000000001         0.15000000000000002      2.658962833886254        1
7.762500000000001         0.15000000000000002      2.699757685666791        1
7.918700000000001         0.15000000000000002      2.6471657372549835       1
8.0749                    0.15000000000000002      2.617760869224477        1
8.231100000000001         0.15000000000000002      2.753114441024832        1
8.387300000000002         0.15000000000000002      2.664316084212428        1
8.543500000000002         0.15000000000000002      2.7198172834747276       1
8.6997                    0.15000000000000002      2.663807480893253        1
8.8559                    0.15000000000000002      2.7837800940516613       1
9.0121                    0.15000000000000002      2.6944095282960694       1
9.1683                    0.15000000000000002      2.7090788276801314       1
9.3245                    0.15000000000000002      2.723417172573154        1
9.4807                    0.15000000000000002      2.7735985640071217       1
9.6369                    0.15000000000000002      2.7140789377955032       1
9.7931                    0.15000000000000002      2.740061095150905        1
9.949300000000001         0.15000000000000002      2.7916496329779275       1
10.105500000000001        0.15000000000000002      2.7403830886206855       1
10.261700000000001        0.15000000000000002      2.8174961769126408       1
10.417900000000001        0.15000000000000002      2.7629617799791335       1
10.574100000000001        0.15000000000000002      2.7239784758651524       1
10.7303                   0.15000000000000002      2.7523311657528744       1
10.8865                   0.15000000000000002      2.7493660522109113       1
11.0427                   0.15000000000000002      2.699556061947475        1
11.1989                   0.15000000000000002      2.6071392877167714       1
11.3551                   0.15000000000000002      2.5275515919955573       1
11.5113                   0.15000000000000002      2.3841531106200886       1
11.6675                   0.15000000000000002      0.20735342756656205      1
11.8237                   0.15000000000000002      0.11314547665945796      1
11.9799                   0.15000000000000002      -0.02116568405595662     1
12.136100000000003        0.15000000000000002      -0.08126947090494197     1
12.292300000000001        0.15000000000000002      -0.10426338701192317     1
12.448500000000001        0.15000000000000002      -0.10743952397656686     1
12.604700000000001        0.15000000000000002      -0.09977823745401765     1
12.760900000000001        0.15000000000000002      -0.09988935274103497     1
12.917100000000001        0.15000000000000002      -0.09394921836093896     1
13.0733                   0.15000000000000002      -0.08449255831493328     1
13.2295                   0.15000000000000002      -0.0818670873775305      1
13.385700000000002        0.15000000000000002      -0.08049986352610604     1
13.541900000000002        0.15000000000000002      -0.0781471271752418      1
-1.9219                   0.25                     -0.0022572554945482493   1
-1.7657                   0.25                     -0.0022978429329115826   1
-1.6095                   0.25                     -0.0023428197270333132   1
-1.4532999999999998       0.25                     -0.00241687930701992     1
-1.2971                   0.25                     -0.0025289344602740724   1
-1.1408999999999998       0.25                     -0.0026750514575234067   1
-0.9847                   0.25                     -0.002854544400298425    1
-0.8285                   0.25                     -0.0030976653437999758   1
-0.6722999999999999       0.25                     -0.0033730548154175567   1
-0.5161                   0.25                     -0.0037450550694064777   1
-0.3598999999999999       0.25                     -0.004201129705278889    1
-0.20369999999999977      0.25                     -0.004716257399148154    1
-0.047499999999999876     0.25                     -0.005335787846139972    1
0.10870000000000024       0.25                     1.4415200045508336       1
0.26490000000000014       0.25                     1.4409268234301837       1
0.42110000000000003       0.25                     1.4397960359039834       1
0.5773000000000001        0.25                     1.4381274741023733       1
0.7335000000000003        0.25                     1.436090938269717        1
0.8897000000000004        0.25                     1.434053769914377        1
1.0459000000000005        0.25                     1.4306698963407714       1
1.2021                    0.25                     1.427983175609448        1
1.3583                    0.25                     1.4237922722161578       1
1.5145000000000002        0.25                     1.4192695440372742       1
1.6706999999999999        0.25                     1.4149160258729143       1
1.8269                    0.25                     1.4087820017521913       1
1.9831000000000005        0.25                     1.4025042609825178       1
2.1393000000000004        0.25                     1.3967697985081977       1
2.2955000000000005        0.25                     1.390369421107672        1
2.4516999999999998        0.25                     1.382324630522895        1
2.6079                    0.25                     1.3723275707133735       1
2.7641000000000004        0.25                     1.362915021982264        1
2.9203                    0.25                     1.3496149400049517       1
3.0765000000000007        0.25                     1.3325362380466033       1
3.2327000000000004        0.25                     1.3158895093616203       1
3.3889                    0.25                     1.2855545088113596       1
3.5450999999999997        0.25                     1.2597485353687379       1
3.7013000000000003        0.25                     1.1930739027228325       1
3.8575                    0.25                     1.1357636663417265       1
4.0137                    0.25                     0.8889925181728144       1
4.169900000000001         0.25                     0.6081927791648294       1
4.3261                    0.25                     0.5593025782716414       1
4.4823                    0.25                     1.0336558351758305       1
4.6385000000000005        0.25                     1.2668437838653364       1
4.794700000000001         0.25                     1.5397819294218444       1
4.950900000000001         0.25                     1.7288875041131524       1
5.107100000000001         0.25                     2.0004190925893397       1
5.263300000000001         0.25                     2.0411201189265302       1
5.4195                    0.25                     2.1198881664753273       1
5.5757                    0.25                     2.125071026899338        1
5.7319                    0.25                     2.1820919937433483       1
5.8881000000000006        0.25                     2.1751768456586937       1
6.044300000000001         0.25                     2.228373164793982        1
6.200500000000001         0.25                     2.111068852805992        1
6.356700000000001         0.25                     2.2526786464756228       1
6.512900000000001         0.25                     2.163199736056872        1
6.669100000000001         0.25                     2.162654481492994        1
6.8252999999999995        0.25                     2.31013941806396         1
6.9815000000000005        0.25                     2.2174719987484997       1
7.1377                    0.25                     2.3737743117651307       1
7.293899999999999         0.25                     2.353064888753577        1
7.4501                    0.25                     2.4172082293539567       1
7.606300000000001         0.25                     2.390000484162015        1
7.762500000000001         0.25                     2.3095038998654753       1
7.918700000000001         0.25                     2.4389051563318622       1
8.0749                    0.25                     2.257982681831604        1
8.231100000000001         0.25                     2.317220020913644        1
8.387300000000002         0.25                     2.3625178907654742       1
8.543500000000002         0.25                     2.4005345840653214       1
8.6997                    0.25                     2.3949375662397934       1
8.8559                    0.25                     2.417817879087842        1
9.0121                    0.25                     2.3217073877565384       1
9.1683                    0.25                     2.5710564112845873       1
9.3245                    0.25                     2.516861628027183        1
9.4807                    0.25                     2.4158698680755815       1
9.6369                    0.25                     2.453035937677696        1
9.7931                    0.25                     2.4725278193184277       1
9.949300000000001         0.25                     2.50660000080806         1
10.105500000000001        0.25                     2.452306448629775        1
10.261700000000001        0.25                     2.3927211439065235       1
10.417900000000001        0.25                     2.5088974191195037       1
10.574100000000001        0.25                     2.497736483026043        1
10.7303                   0.25                     2.4787220286569287       1
10.8865                   0.25                     2.4989371481278466       1
11.0427                   0.25                     2.463917382251505        1
11.1989                   0.25                     2.3452933535588683       1
11.3551                   0.25                     2.2464789293776484       1
11.5113                   0.25                     2.081396488011427        1
11.6675                   0.25                     0.21323400859928665      1
11.8237                   0.25                     0.10114947042302402      1
11.9799                   0.25                     -0.03482799685686322     1
12.136100000000003        0.25                     -0.08310573459402004     1
12.292300000000001        0.25                     -0.10629440573456428     1
12.448500000000001        0.25                     -0.1046690552343823      1
12.604700000000001        0.25                     -0.0968981374049302      1
12.760900000000001        0.25                     -0.09901701257595753     1
12.917100000000001        0.25                     -0.09153795317633945     1
13.0733                   0.25                     -0.08381815776387119     1
13.2295                   0.25                     -0.0816843815859079      1
13.385700000000002        0.25                     -0.07976941109983321     1
13.541900000000002        0.25                     -0.07747701490128245     1
-1.9219                   0.35                     -0.00225126547707857     1
-1.7657                   0.35                     -0.002290620322988428    1
-1.6095                   0.35                     -0.0023423862243055205   1
-1.4532999999999998       0.35                     -0.002480831070945849    1
-1.2971                   0.35                     -0.0025210621429264746   1
-1.1408999999999998       0.35                     -0.0026680614786631905   1
-0.9847                   0.35                     -0.0028595119289084926   1
-0.8285                   0.35                     -0.0030752583067729117   1
-0.6722999999999999       0.35                     -0.003347786639564143    1
-0.5161                   0.35                     -0.00371263567334712     1
-0.3598999999999999       0.35                     -0.004145322222827416    1
-0.20369999999999977      0.35                     -0.00470658294791243     1
-0.047499999999999876     0.35                     -0.005314936414927196    1
0.10870000000000024       0.35                     1.4417022184442765       1
0.26490000000000014       0.35                     1.44105996088014         1
0.42110000000000003       0.35                     1.4399679888044306       1
0.5773000000000001        0.35                     1.4384004286522627       1
0.7335000000000003        0.35                     1.436322033910991        1
0.8897000000000004        0.35                     1.4338795544698533       1
1.0459000000000005        0.35                     1.4308667261657053       1
1.2021                    0.35                     1.427429347653891        1
1.3583                    0.35                     1.423952320754968        1
1.5145000000000002        0.35                     1.4192788101152278       1
1.6706999999999999        0.35                     1.4143991442134496       1
1.8269                    0.35                     1.409193510183583        1
1.9831000000000005        0.35                     1.4031090100453922       1
2.1393000000000004        0.35                     1.3959801645126753       1
2.2955000000000005        0.35                     1.388885356493379        1
2.4516999999999998        0.35                     1.3820333564282097       1
2.6079                    0.35                     1.3715606882913143       1
2.7641000000000004        0.35                     1.3628126272826098       1
2.9203                    0.35                     1.349096464629866        1
3.0765000000000007        0.35                     1.3309041109612025       1
3.2327000000000004        0.35                     1.313297771424791        1
3.3889                    0.35                     1.2875511550135563       1
3.5450999999999997        0.35                     1.2544352033377812       1
3.7013000000000003        0.35                     1.1864349440397517       1
3.8575                    0.35                     1.0881099048299618       1
4.0137                    0.35                     0.8568406732415945       1
4.169900000000001         0.35                     0.4748565408239596       1
4.3261                    0.35                     0.6788829428409343       1
4.4823                    0.35                     1.0595494121878488       1
4.6385000000000005        0.35                     1.1055910076935263       1
4.794700000000001         0.35                     1.3253785717599675       1
4.950900000000001         0.35                     1.5528823958278097       1
5.107100000000001         0.35                     1.5551467575252382       1
5.263300000000001         0.35                     1.6508527512467532       1
5.4195                    0.35                     1.6346403598048287       1
5.5757                    0.35                     1.4567322411093961       1
5.7319                    0.35                     1.5721614947855695       1
5.8881000000000006        0.35                     1.622445529361758        1
6.044300000000001         0.35                     1.5593163916476964       1
6.200500000000001         0.35                     1.6134547149320089       1
6.356700000000001         0.35                     1.5519392290834977       1
6.512900000000001         0.35                     1.7701339910900553       1
6.669100000000001         0.35                     1.7843598880228386       1
6.8252999999999995        0.35                     1.053934719991314        1
6.9815000000000005        0.35                     1.6733481470249425       1
7.1377                    0.35                     1.6461391068909457       1
7.293899999999999         0.35                     1.7310617033231155       1
7.4501                    0.35                     1.6923960827679227       1
7.606300000000001         0.35                     1.6264334745957254       1
7.762500000000001         0.35                     1.6299811007499836       1
7.918700000000001         0.35                     1.3413832959248035       1
8.0749                    0.35                     1.744345363776136        1
8.231100000000001         0.35                     1.6553991556565055       1
8.387300000000002         0.35                     1.6766504405172615       1
8.543500000000002         0.35                     1.7645328083822285       1
8.6997                    0.35                     1.773266557011166        1
8.8559                    0.35                     1.645881814501923        1
9.0121                    0.35                     1.8643293662806395       1
9.1683                    0.35                     1.824282837392651        1
9.3245                    0.35                     1.8287539038808334       1
9.4807                    0.35                     1.7378682833985484       1
9.6369                    0.35                     1.8818762157050593       1
9.7931                    0.35                     1.8782447459900238       1
9.949300000000001         0.35                     1.8914211507757235       1
10.105500000000001        0.35                     1.9856838732898408       1
10.261700000000001        0.35                     1.94848077041495         1
10.417900000000001        0.35                     1.973751363439865        1