% Model:              cross_talk_new.mph
% Version:            COMSOL 6.2.0.415
% Date:               Feb 3 2025, 16:24
% Dimension:          2
% Nodes:              3000
% Expressions:        2
% Description:        Point
% cpl2x                   cpl2y                    Magnetic flux density, y-component Radius
-1.9219                   0.05                     -0.001481990885660351    1
-1.7657                   0.05                     -0.0014893413564673772   1
-1.6095                   0.05                     -0.0014966918272743997   1
-1.4533                   0.05                     -0.0014925588381338398   1
-1.2971                   0.05                     -0.001517561489411453    1
-1.1408999999999998       0.05                     -0.0015233494258864912   1
-0.9847000000000001       0.05                     -0.0015212760154736716   1
-0.8285000000000002       0.05                     -0.0015084287255614347   1
-0.6723000000000001       0.05                     -0.0014651166746695848   1
-0.5161                   0.05                     -0.0013715708546812033   1
-0.3599000000000001       0.05                     -0.0012018498949480233   1
-0.2037                   0.05                     -8.402742125099751E-4    1
-0.0475000000000001       0.05                     -1.258410038196267E-4    1
0.10870000000000002       0.05                     1.2136990104362546       1
0.2648999999999997        0.05                     1.2074900649296931       1
0.42110000000000003       0.05                     1.2133497219692253       1
0.5773000000000001        0.05                     1.2167934898542527       1
0.7334999999999998        0.05                     1.2271207613624964       1
0.8896999999999999        0.05                     1.220595284686923        1
1.0459                    0.05                     1.2398522799725962       1
1.2020999999999995        0.05                     1.2564267607861224       1
1.3582999999999996        0.05                     1.2455970939443877       1
1.5144999999999997        0.05                     1.2519091104784144       1
1.6706999999999994        0.05                     1.1907229333908464       1
1.8268999999999995        0.05                     1.0972350306682321       1
1.9831                    0.05                     1.1204410011386834       1
2.1393000000000004        0.05                     1.093872603155271        1
2.2955000000000005        0.05                     1.0456005395621009       1
2.4516999999999993        0.05                     1.1556897334833303       1
2.607899999999999         0.05                     1.14757617552684         1
2.7640999999999996        0.05                     1.0638148225213189       1
2.9203                    0.05                     1.1221697573441882       1
3.0765                    0.05                     1.127089976672899        1
3.2327000000000004        0.05                     1.0773039863917866       1
3.388899999999999         0.05                     1.101154249665241        1
3.5450999999999997        0.05                     1.1101774606931003       1
3.7012999999999994        0.05                     1.0645432129957577       1
3.8575                    0.05                     1.1452954782511697       1
4.0137                    0.05                     1.113222609520888        1
4.1699                    0.05                     1.1395393787878436       1
4.3261                    0.05                     1.197374102625164        1
4.4822999999999995        0.05                     1.2784280003143251       1
4.638499999999999         0.05                     0.02992016232835746      1
4.7947                    0.05                     0.07171047175017031      1
4.950900000000001         0.05                     0.11172180095535952      1
5.1071                    0.05                     0.1415521807188453       1
5.263300000000001         0.05                     0.1634225313907147       1
5.419499999999999         0.05                     0.18361056546344393      1
5.575699999999999         0.05                     0.19362711321711723      1
5.7318999999999996        0.05                     0.1988431538238624       1
5.8881                    0.05                     0.21828103702529944      1
6.0443                    0.05                     0.21146159957741095      1
6.2005                    0.05                     0.21585125812674416      1
6.3567                    0.05                     0.2172979841829935       1
6.5129                    0.05                     0.21967490626512604      1
6.6691                    0.05                     0.21927499202553857      1
6.825299999999999         0.05                     0.21563798876500123      1
6.981499999999999         0.05                     0.21622923486351914      1
7.137699999999999         0.05                     0.21170734706783825      1
7.293899999999999         0.05                     0.20685370629658598      1
7.4501                    0.05                     0.19718296086608822      1
7.606299999999999         0.05                     0.2159476074188684       1
7.762499999999999         0.05                     0.21299825208131587      1
7.918699999999999         0.05                     0.21004889674376304      1
8.0749                    0.05                     0.20709954140621029      1
8.2311                    0.05                     0.19492443311554136      1
8.3873                    0.05                     0.1959180101194939       1
8.5435                    0.05                     0.19691158712344636      1
8.6997                    0.05                     0.1979051641273989       1
8.8559                    0.05                     0.19871877386626896      1
9.012099999999998         0.05                     0.19554714814670923      1
9.168299999999999         0.05                     0.1867102284334609       1
9.324499999999999         0.05                     0.18326649018161323      1
9.4807                    0.05                     0.17982275192976543      1
9.636899999999999         0.05                     0.14141878145195375      1
9.793099999999999         0.05                     0.16088757265757994      1
9.9493                    0.05                     0.15999389156813965      1
10.105500000000001        0.05                     0.15910021047869927      1
10.2617                   0.05                     0.15820652938925903      1
10.4179                   0.05                     0.18023060095699397      1
10.5741                   0.05                     0.1703758160341751       1
10.7303                   0.05                     0.1670503220361384       1
10.8865                   0.05                     0.16372482803810162      1
11.042699999999998        0.05                     0.17085823391747829      1
11.198899999999998        0.05                     0.15626019037234468      1
11.3551                   0.05                     0.1546610153647363       1
11.5113                   0.05                     0.14652853522852236      1
11.667499999999999        0.05                     0.12623106827894648      1
11.823699999999999        0.05                     0.08774107940003473      1
11.9799                   0.05                     0.058861063751946        1
12.1361                   0.05                     0.03473480644142046      1
12.2923                   0.05                     0.013666403628457946     1
12.4485                   0.05                     -0.0017739199186676546   1
12.604700000000001        0.05                     -0.014215278435358691    1
12.7609                   0.05                     -0.020951150717394562    1
12.9171                   0.05                     -0.027235963921817787    1
13.073299999999998        0.05                     -0.03242001153121021     1
13.229499999999998        0.05                     -0.03356787757272741     1
13.3857                   0.05                     -0.035302592498026635    1
13.5419                   0.05                     -0.03717246577671827     1
-1.9219                   0.15000000000000002      -0.0014815540267516451   1
-1.7657                   0.15000000000000002      -0.0014889044975586662   1
-1.6095                   0.15000000000000002      -0.001500313669188436    1
-1.4533                   0.15000000000000002      -0.0014961600937112912   1
-1.2971                   0.15000000000000002      -0.0015160298372698458   1
-1.1408999999999998       0.15000000000000002      -0.0015253583085315103   1
-0.9847000000000001       0.15000000000000002      -0.001509747522899025    1
-0.8285000000000002       0.15000000000000002      -0.00150673248565364     1
-0.6723000000000001       0.15000000000000002      -0.001467617493829787    1
-0.5161                   0.15000000000000002      -0.0013814104952654949   1
-0.3599000000000001       0.15000000000000002      -0.0011890267785737568   1
-0.2037                   0.15000000000000002      -8.935673773962094E-4    1
-0.0475000000000001       0.15000000000000002      -1.543729049149345E-4    1
0.10870000000000002       0.15000000000000002      1.1550845169934034       1
0.2648999999999997        0.15000000000000002      1.1653338657270988       1
0.42110000000000003       0.15000000000000002      1.1537860525308565       1
0.5773000000000001        0.15000000000000002      1.1593280613824304       1
0.7334999999999998        0.15000000000000002      1.1575608369369612       1
0.8896999999999999        0.15000000000000002      1.1008302061426412       1
1.0459                    0.15000000000000002      1.1170680812142184       1
1.2020999999999995        0.15000000000000002      1.10502305241175         1
1.3582999999999996        0.15000000000000002      1.0990321146470876       1
1.5144999999999997        0.15000000000000002      1.178658974611537        1
1.6706999999999994        0.15000000000000002      1.1183123820030139       1
1.8268999999999995        0.15000000000000002      1.1551076721079585       1
1.9831                    0.15000000000000002      1.1436819886809184       1
2.1393000000000004        0.15000000000000002      1.063182828294793        1
2.2955000000000005        0.15000000000000002      1.1145175572761028       1
2.4516999999999993        0.15000000000000002      1.166747210448924        1
2.607899999999999         0.15000000000000002      1.082596113154824        1
2.7640999999999996        0.15000000000000002      1.0468554635236937       1
2.9203                    0.15000000000000002      1.133033915346314        1
3.0765                    0.15000000000000002      1.1330910672830992       1
3.2327000000000004        0.15000000000000002      1.0834026104898546       1
3.388899999999999         0.15000000000000002      1.0078929913543142       1
3.5450999999999997        0.15000000000000002      1.0765976571535851       1
3.7012999999999994        0.15000000000000002      1.029761212876413        1
3.8575                    0.15000000000000002      1.0573420772911102       1
4.0137                    0.15000000000000002      1.1353431804127316       1
4.1699                    0.15000000000000002      1.1217876924624763       1
4.3261                    0.15000000000000002      1.1753981076334965       1
4.4822999999999995        0.15000000000000002      1.2353058621600916       1
4.638499999999999         0.15000000000000002      0.02978515611646823      1
4.7947                    0.15000000000000002      0.0698800809888733       1
4.950900000000001         0.15000000000000002      0.10787371464327829      1
5.1071                    0.15000000000000002      0.13387252138854133      1
5.263300000000001         0.15000000000000002      0.15736543205507836      1
5.419499999999999         0.15000000000000002      0.17383274516909625      1
5.575699999999999         0.15000000000000002      0.18572858160534034      1
5.7318999999999996        0.15000000000000002      0.194823676732903        1
5.8881                    0.15000000000000002      0.1936082403807009       1
6.0443                    0.15000000000000002      0.19902073745329216      1
6.2005                    0.15000000000000002      0.20802272717304698      1
6.3567                    0.15000000000000002      0.20000695633486826      1
6.5129                    0.15000000000000002      0.19960431027089937      1
6.6691                    0.15000000000000002      0.20065513024931744      1
6.825299999999999         0.15000000000000002      0.19895542654939408      1
6.981499999999999         0.15000000000000002      0.20966206091242529      1
7.137699999999999         0.15000000000000002      0.1973993806715375       1
7.293899999999999         0.15000000000000002      0.19254573990028553      1
7.4501                    0.15000000000000002      0.18801580005239366      1
7.606299999999999         0.15000000000000002      0.20329513631526946      1
7.762499999999999         0.15000000000000002      0.19446657479466906      1
7.918699999999999         0.15000000000000002      0.1915172194571163       1
8.0749                    0.15000000000000002      0.19351903558379302      1
8.2311                    0.15000000000000002      0.19536587670883448      1
8.3873                    0.15000000000000002      0.18174310132299695      1
8.5435                    0.15000000000000002      0.18273667832694937      1
8.6997                    0.15000000000000002      0.18373025533090181      1
8.8559                    0.15000000000000002      0.18154562186996215      1
9.012099999999998         0.15000000000000002      0.17979646943441063      1
9.168299999999999         0.15000000000000002      0.18136464447390183      1
9.324499999999999         0.15000000000000002      0.1727217848698813       1
9.4807                    0.15000000000000002      0.16783544386787672      1
9.636899999999999         0.15000000000000002      0.16897392641415745      1
9.793099999999999         0.15000000000000002      0.16667483916186546      1
9.9493                    0.15000000000000002      0.16484563686244363      1
10.105500000000001        0.15000000000000002      0.16301643456302173      1
10.2617                   0.15000000000000002      0.16797030145998476      1
10.4179                   0.15000000000000002      0.17711187716498003      1
10.5741                   0.15000000000000002      0.16019943376753842      1
10.7303                   0.15000000000000002      0.15687393976950176      1
10.8865                   0.15000000000000002      0.15296509280851697      1
11.042699999999998        0.15000000000000002      0.15682429115889457      1
11.198899999999998        0.15000000000000002      0.1459884050525623       1
11.3551                   0.15000000000000002      0.14438923004495396      1
11.5113                   0.15000000000000002      0.12677887329662768      1
11.667499999999999        0.15000000000000002      0.11536338737369894      1
11.823699999999999        0.15000000000000002      0.08274473317030431      1
11.9799                   0.15000000000000002      0.05183198251011367      1
12.1361                   0.15000000000000002      0.029690541238049595     1
12.2923                   0.15000000000000002      0.010495053124109477     1
12.4485                   0.15000000000000002      -0.003485911913417142    1
12.604700000000001        0.15000000000000002      -0.015572316902716099    1
12.7609                   0.15000000000000002      -0.022308189184751803    1
12.9171                   0.15000000000000002      -0.027819200158275017    1
13.073299999999998        0.15000000000000002      -0.03233844660716444     1
13.229499999999998        0.15000000000000002      -0.034537581790988245    1
13.3857                   0.15000000000000002      -0.03613330587806394     1
13.5419                   0.15000000000000002      -0.0372236154410822      1
-1.9219                   0.25                     -0.0014818334432291982   1
-1.7657                   0.25                     -0.0014885391443931247   1
-1.6095                   0.25                     -0.0015010873017071782   1
-1.4533                   0.25                     -0.0014963303113801974   1
-1.2971                   0.25                     -0.0015143887757497476   1
-1.1408999999999998       0.25                     -0.0015273671911764652   1
-0.9847000000000001       0.25                     -0.0015157440025468111   1
-0.8285000000000002       0.25                     -0.0015074140772261225   1
-0.6723000000000001       0.25                     -0.0014840408250675757   1
-0.5161                   0.25                     -0.0013505071896571103   1
-0.3599000000000001       0.25                     -0.0012423279316005897   1
-0.2037                   0.25                     -8.784341078489077E-4    1
-0.0475000000000001       0.25                     -1.9802344851893583E-4   1
0.10870000000000002       0.25                     0.9809731620811363       1
0.2648999999999997        0.25                     0.9860983210010938       1
0.42110000000000003       0.25                     0.9951767851341817       1
0.5773000000000001        0.25                     0.9136360924715743       1
0.7334999999999998        0.25                     0.9589442317605537       1
0.8896999999999999        0.25                     0.9443521723189926       1
1.0459                    0.25                     0.9761170762665463       1
1.2020999999999995        0.25                     0.95845807311445         1
1.3582999999999996        0.25                     0.8485153689976366       1
1.5144999999999997        0.25                     0.8880155167337654       1
1.6706999999999994        0.25                     0.9104527872903884       1
1.8268999999999995        0.25                     0.9001293557945554       1
1.9831                    0.25                     1.0807651170274852       1
2.1393000000000004        0.25                     1.1002786201630534       1
2.2955000000000005        0.25                     0.9850336406925676       1
2.4516999999999993        0.25                     0.9094324589467585       1
2.607899999999999         0.25                     0.9259153734898046       1
2.7640999999999996        0.25                     0.8991914003559663       1
2.9203                    0.25                     1.0601994517900866       1
3.0765                    0.25                     0.949083932033689        1
3.2327000000000004        0.25                     0.9158923066684017       1
3.388899999999999         0.25                     0.9244967971628173       1
3.5450999999999997        0.25                     0.9340369603565208       1
3.7012999999999994        0.25                     1.0659436453664868       1
3.8575                    0.25                     0.9449633256539975       1
4.0137                    0.25                     0.9647561751285825       1
4.1699                    0.25                     1.0033033636967175       1
4.3261                    0.25                     1.0446319364922825       1
4.4822999999999995        0.25                     1.1392234149859375       1
4.638499999999999         0.25                     0.02722007299365825      1
4.7947                    0.25                     0.06508432104467393      1
4.950900000000001         0.25                     0.10166506357820554      1
5.1071                    0.25                     0.13397360681097154      1
5.263300000000001         0.25                     0.15172773324244054      1
5.419499999999999         0.25                     0.16449399231295286      1
5.575699999999999         0.25                     0.17728327958509965      1
5.7318999999999996        0.25                     0.1891773723202332       1
5.8881                    0.25                     0.18018226535705228      1
6.0443                    0.25                     0.191192206499595        1
6.2005                    0.25                     0.20411852109937292      1
6.3567                    0.25                     0.18696869134470917      1
6.5129                    0.25                     0.1849608637084374       1
6.6691                    0.25                     0.18203526847309642      1
6.825299999999999         0.25                     0.18227286433378714      1
6.981499999999999         0.25                     0.18816977112206568      1
7.137699999999999         0.25                     0.19060922161104898      1
7.293899999999999         0.25                     0.17823777350398495      1
7.4501                    0.25                     0.17884863923869918      1
7.606299999999999         0.25                     0.18228303906462645      1
7.762499999999999         0.25                     0.1759348975080224       1
7.918699999999999         0.25                     0.17298554217046963      1
8.0749                    0.25                     0.17448377398513937      1
8.2311                    0.25                     0.1763306151101809       1
8.3873                    0.25                     0.16756819252649993      1
8.5435                    0.25                     0.16856176953045246      1
8.6997                    0.25                     0.16955534653440493      1
8.8559                    0.25                     0.16437246987365528      1
9.012099999999998         0.25                     0.16454225299295788      1
9.168299999999999         0.25                     0.16611042803244908      1
9.324499999999999         0.25                     0.16217707955814933      1
9.4807                    0.25                     0.15820291622614285      1
9.636899999999999         0.25                     0.15304147991311523      1
9.793099999999999         0.25                     0.1569853967228081       1
9.9493                    0.25                     0.15515619442338627      1
10.105500000000001        0.25                     0.1533269921239644       1
10.2617                   0.25                     0.15323728920218171      1
10.4179                   0.25                     0.15602542552757043      1
10.5741                   0.25                     0.15002305150090156      1
10.7303                   0.25                     0.14669755750286495      1
10.8865                   0.25                     0.14482444591860125      1
11.042699999999998        0.25                     0.14279034840031074      1
11.198899999999998        0.25                     0.1357166197327801       1
11.3551                   0.25                     0.13411744472517134      1
11.5113                   0.25                     0.11936439212126548      1
11.667499999999999        0.25                     0.10449570646845163      1
11.823699999999999        0.25                     0.07774838694057325      1
11.9799                   0.25                     0.04480290126828046      1
12.1361                   0.25                     0.02651919073370118      1
12.2923                   0.25                     0.006551797827059488     1
12.4485                   0.25                     -0.005197903908166018    1
12.604700000000001        0.25                     -0.01692935537007384     1
12.7609                   0.25                     -0.02366522765210921     1
12.9171                   0.25                     -0.028402436394732024    1
13.073299999999998        0.25                     -0.03297464523616632     1
13.229499999999998        0.25                     -0.03457036932324187     1
13.3857                   0.25                     -0.03616609341031748     1
13.5419                   0.25                     -0.03727476510544614     1
-1.9219                   0.35                     -0.0014804853994310266   1
-1.7657                   0.35                     -0.001486676424555408    1
-1.6095                   0.35                     -0.001498893691238015    1
-1.4533                   0.35                     -0.0014965005290491157   1
-1.2971                   0.35                     -0.0015127477142297006   1
-1.1408999999999998       0.35                     -0.0015378597748857137   1
-0.9847000000000001       0.35                     -0.0015217404821946182   1
-0.8285000000000002       0.35                     -0.0014914325258744698   1
-0.6723000000000001       0.35                     -0.001505577939182684    1
-0.5161                   0.35                     -0.0013981435591251395   1
-0.3599000000000001       0.35                     -0.0012252400398458096   1
-0.2037                   0.35                     -9.298849235033213E-4    1
-0.0475000000000001       0.35                     -1.6089541574915156E-4   1
0.10870000000000002       0.35                     0.7155473192318613       1
0.2648999999999997        0.35                     0.6437844065505851       1
0.42110000000000003       0.35                     0.6487558354769627       1
0.5773000000000001        0.35                     0.6738799213101734       1
0.7334999999999998        0.35                     0.7603276265841445       1
0.8896999999999999        0.35                     0.6499289560647934       1
1.0459                    0.35                     0.7394017497468188       1
1.2020999999999995        0.35                     0.819233342798674        1
1.3582999999999996        0.35                     0.631487479687643        1
1.5144999999999997        0.35                     0.6786735316072351       1
1.6706999999999994        0.35                     0.7583072976419397       1
1.8268999999999995        0.35                     0.7479838661461072       1
1.9831                    0.35                     0.6934085200850939       1
2.1393000000000004        0.35                     0.6917533570900927       1
2.2955000000000005        0.35                     0.6695743359703368       1
2.4516999999999993        0.35                     0.6474469369301508       1
2.607899999999999         0.35                     0.6824941800227904       1
2.7640999999999996        0.35                     0.7465301649261205       1
2.9203                    0.35                     0.6872235723096218       1
3.0765                    0.35                     0.6094630175090019       1
3.2327000000000004        0.35                     0.6580449011512705       1
3.388899999999999         0.35                     0.805549167833215        1
3.5450999999999997        0.35                     0.6363368078489815       1
3.7012999999999994        0.35                     0.6949567408421593       1
3.8575                    0.35                     0.7231460994389476       1
4.0137                    0.35                     0.737809850377073        1
4.1699                    0.35                     0.7762646197486731       1
4.3261                    0.35                     0.7786604560555124       1
4.4822999999999995        0.35                     0.8804185420355659       1
4.638499999999999         0.35                     0.02403936899727277      1
4.7947                    0.35                     0.06024445138397194      1
4.950900000000001         0.35                     0.09142301609758104      1
5.1071                    0.35                     0.11793306342472275      1
5.263300000000001         0.35                     0.1384566980615995       1
5.419499999999999         0.35                     0.1506574044754453       1
5.575699999999999         0.35                     0.16249229851704222      1
5.7318999999999996        0.35                     0.17235083790261774      1
5.8881                    0.35                     0.17198203390123146      1
6.0443                    0.35                     0.18336367554589772      1
6.2005                    0.35                     0.1807588600727163       1
6.3567                    0.35                     0.17780981689154982      1
6.5129                    0.35                     0.17031741714597534      1
6.6691                    0.35                     0.1634154066968754       1
6.825299999999999         0.35                     0.16559030211818018      1
6.981499999999999         0.35                     0.16667748133170615      1
7.137699999999999         0.35                     0.16911693182068943      1
7.293899999999999         0.35                     0.16392980710768423      1
7.4501                    0.35                     0.1668740578045798       1
7.606299999999999         0.35                     0.16127094181398377      1
7.762499999999999         0.35                     0.15740322022137557      1
7.918699999999999         0.35                     0.15445386488382287      1
8.0749                    0.35                     0.15544851238648552      1
8.2311                    0.35                     0.15729535351152696      1
8.3873                    0.35                     0.16155330418540792      1
8.5435                    0.35                     0.15438686073395563      1
8.6997                    0.35                     0.15037094359690836      1
8.8559                    0.35                     0.14771986151201394      1
9.012099999999998         0.35                     0.1492880365515051       1
9.168299999999999         0.35                     0.15085621159099635      1
9.324499999999999         0.35                     0.15242438663048763      1
9.4807                    0.35                     0.14857038858440913      1
9.636899999999999         0.35                     0.13710903341207292      1
9.793099999999999         0.35                     0.14729595428375072      1
9.9493                    0.35                     0.14546675198432896      1
10.105500000000001        0.35                     0.14207175922403234      1
10.2617                   0.35                     0.1385042769443784       1
10.4179                   0.35                     0.13493679466472458      1