% Model:              cross_talk_new.mph
% Version:            COMSOL 6.2.0.415
% Date:               Feb 3 2025, 16:24
% Dimension:          2
% Nodes:              3000
% Expressions:        2
% Description:        Point
% cpl2x                   cpl2y                    Magnetic flux density, y-component Radius
-1.9219                   0.05000000000000001      -0.001887310037362689    1
-1.7657                   0.05000000000000001      -0.0019019186721686804   1
-1.6095                   0.05000000000000001      -0.0019117108146497804   1
-1.4533                   0.05000000000000001      -0.0019734956490753235   1
-1.2971                   0.05000000000000001      -0.0020370412044574404   1
-1.1408999999999998       0.05000000000000001      -0.0021252819735393877   1
-0.9847000000000001       0.05000000000000001      -0.002212960502608663    1
-0.8285000000000002       0.05000000000000001      -0.0023397814039421705   1
-0.6723000000000001       0.05000000000000001      -0.002523303624081874    1
-0.5161                   0.05000000000000001      -0.002755608397152609    1
-0.3599000000000001       0.05000000000000001      -0.0031142552262110046   1
-0.2037                   0.05000000000000001      -0.003745847470039698    1
-0.0475000000000001       0.05000000000000001      -0.004923839994999124    1
0.10870000000000002       0.05000000000000001      1.483220196858857        1
0.2648999999999997        0.05000000000000001      1.4820005409116572       1
0.42110000000000003       0.05000000000000001      1.4808480174160183       1
0.5773000000000001        0.05000000000000001      1.481142394608037        1
0.7334999999999998        0.05000000000000001      1.476519232225502        1
0.8896999999999999        0.05000000000000001      1.4728346682609688       1
1.0459                    0.05000000000000001      1.4749959584556305       1
1.2020999999999995        0.05000000000000001      1.468996404405022        1
1.3582999999999996        0.05000000000000001      1.4658977083239186       1
1.5144999999999997        0.05000000000000001      1.4670275448515477       1
1.6706999999999994        0.05000000000000001      1.4590407183784726       1
1.8268999999999995        0.05000000000000001      1.454589423468063        1
1.9831                    0.05000000000000001      1.4539418345849673       1
2.1393000000000004        0.05000000000000001      1.4436290118631823       1
2.2955000000000005        0.05000000000000001      1.4407981097289109       1
2.4516999999999993        0.05000000000000001      1.4354538284162734       1
2.607899999999999         0.05000000000000001      1.4313268402572477       1
2.7640999999999996        0.05000000000000001      1.4305423272623412       1
2.9203                    0.05000000000000001      1.4256698643660997       1
3.0765                    0.05000000000000001      1.432136666203742        1
3.2327000000000004        0.05000000000000001      1.427668610173197        1
3.388899999999999         0.05000000000000001      1.4244635243828845       1
3.5450999999999997        0.05000000000000001      1.4356493841671059       1
3.7012999999999994        0.05000000000000001      1.4309413121246308       1
3.8575                    0.05000000000000001      1.435909939043859        1
4.0137                    0.05000000000000001      1.4351758110039108       1
4.1699                    0.05000000000000001      1.4367752470772706       1
4.3261                    0.05000000000000001      1.4315280364406244       1
4.4822999999999995        0.05000000000000001      1.4425972659375768       1
4.638499999999999         0.05000000000000001      0.1418541743921009       1
4.7947                    0.05000000000000001      0.2718474056726945       1
4.950900000000001         0.05000000000000001      0.3257608575005515       1
5.1071                    0.05000000000000001      0.363471690366564        1
5.263300000000001         0.05000000000000001      0.3933274610298679       1
5.419499999999999         0.05000000000000001      0.4008252378267845       1
5.575699999999999         0.05000000000000001      0.40877600027377503      1
5.7318999999999996        0.05000000000000001      0.4145922353797158       1
5.8881                    0.05000000000000001      0.4164916793259128       1
6.0443                    0.05000000000000001      0.40791457038500734      1
6.2005                    0.05000000000000001      0.4106877606192245       1
6.3567                    0.05000000000000001      0.40784957030459695      1
6.5129                    0.05000000000000001      0.3856694825374897       1
6.6691                    0.05000000000000001      0.395382394384615        1
6.825299999999999         0.05000000000000001      0.3797465660432045       1
6.981499999999999         0.05000000000000001      0.37919631071567184      1
7.137699999999999         0.05000000000000001      0.385676460469173        1
7.293899999999999         0.05000000000000001      0.36683796834186644      1
7.4501                    0.05000000000000001      0.3647355706395452       1
7.606299999999999         0.05000000000000001      0.3658340139001867       1
7.762499999999999         0.05000000000000001      0.37883230124097855      1
7.918699999999999         0.05000000000000001      0.3791311371718002       1
8.0749                    0.05000000000000001      0.36752795586332315      1
8.2311                    0.05000000000000001      0.37643182243737067      1
8.3873                    0.05000000000000001      0.3637119036978421       1
8.5435                    0.05000000000000001      0.35893516534601433      1
8.6997                    0.05000000000000001      0.3526820006782319       1
8.8559                    0.05000000000000001      0.3602677478386842       1
9.012099999999998         0.05000000000000001      0.3617477378234527       1
9.168299999999999         0.05000000000000001      0.3515491835368424       1
9.324499999999999         0.05000000000000001      0.3539704742686704       1
9.4807                    0.05000000000000001      0.35447659864923414      1
9.636899999999999         0.05000000000000001      0.3466436146563302       1
9.793099999999999         0.05000000000000001      0.3431058985589837       1
9.9493                    0.05000000000000001      0.3375637158001092       1
10.105500000000001        0.05000000000000001      0.3366700347106688       1
10.2617                   0.05000000000000001      0.3243046330809334       1
10.4179                   0.05000000000000001      0.31733841698185133      1
10.5741                   0.05000000000000001      0.3219542523948556       1
10.7303                   0.05000000000000001      0.3063452855395509       1
10.8865                   0.05000000000000001      0.299863495567699        1
11.042699999999998        0.05000000000000001      0.2876774735923155       1
11.198899999999998        0.05000000000000001      0.29988714442376135      1
11.3551                   0.05000000000000001      0.31102013358042024      1
11.5113                   0.05000000000000001      0.47916422371475553      1
11.667499999999999        0.05000000000000001      0.26955943387958853      1
11.823699999999999        0.05000000000000001      0.16884901416832243      1
11.9799                   0.05000000000000001      0.07691256940964397      1
12.1361                   0.05000000000000001      0.026966914665596947     1
12.2923                   0.05000000000000001      -0.0049663523619365435   1
12.4485                   0.05000000000000001      -0.02617490552795911     1
12.604700000000001        0.05000000000000001      -0.04164596240196561     1
12.7609                   0.05000000000000001      -0.04375906161039367     1
12.9171                   0.05000000000000001      -0.05058780589519839     1
13.073299999999998        0.05000000000000001      -0.05177563893114579     1
13.229499999999998        0.05000000000000001      -0.05292350497266303     1
13.3857                   0.05000000000000001      -0.05492141125380634     1
13.5419                   0.05000000000000001      -0.05474944112558504     1
-1.9219                   0.15000000000000002      -0.0018838785045150379   1
-1.7657                   0.15000000000000002      -0.0018993897966304847   1
-1.6095                   0.15000000000000002      -0.0019228515611879344   1
-1.4533                   0.15000000000000002      -0.001971334908134025    1
-1.2971                   0.15000000000000002      -0.0020323060594060194   1
-1.1408999999999998       0.15000000000000002      -0.0021008833714552533   1
-0.9847000000000001       0.15000000000000002      -0.0022182588416018167   1
-0.8285000000000002       0.15000000000000002      -0.0023178886929374615   1
-0.6723000000000001       0.15000000000000002      -0.0025137786169229515   1
-0.5161                   0.15000000000000002      -0.0027463133678263807   1
-0.3599000000000001       0.15000000000000002      -0.0030966693311175186   1
-0.2037                   0.15000000000000002      -0.0037661162068545195   1
-0.0475000000000001       0.15000000000000002      -0.004875280014940753    1
0.10870000000000002       0.15000000000000002      1.4830784355027435       1
0.2648999999999997        0.15000000000000002      1.4826502177542975       1
0.42110000000000003       0.15000000000000002      1.4811201377767682       1
0.5773000000000001        0.15000000000000002      1.4789387347212564       1
0.7334999999999998        0.15000000000000002      1.4775180380366741       1
0.8896999999999999        0.15000000000000002      1.4759203215727783       1
1.0459                    0.15000000000000002      1.473723276747318        1
1.2020999999999995        0.15000000000000002      1.4696873775180268       1
1.3582999999999996        0.15000000000000002      1.4664256199868062       1
1.5144999999999997        0.15000000000000002      1.4648742074236822       1
1.6706999999999994        0.15000000000000002      1.4598164347869305       1
1.8268999999999995        0.15000000000000002      1.4520336250459396       1
1.9831                    0.15000000000000002      1.4504441218905795       1
2.1393000000000004        0.15000000000000002      1.4460408868182573       1
2.2955000000000005        0.15000000000000002      1.4423354464011546       1
2.4516999999999993        0.15000000000000002      1.4378154805894725       1
2.607899999999999         0.15000000000000002      1.435299835462132        1
2.7640999999999996        0.15000000000000002      1.4305764860772348       1
2.9203                    0.15000000000000002      1.4279100485367824       1
3.0765                    0.15000000000000002      1.4278951099489783       1
3.2327000000000004        0.15000000000000002      1.4306619983644984       1
3.388899999999999         0.15000000000000002      1.4278453806495475       1
3.5450999999999997        0.15000000000000002      1.4274932800985396       1
3.7012999999999994        0.15000000000000002      1.4249314159032829       1
3.8575                    0.15000000000000002      1.4351593467280914       1
4.0137                    0.15000000000000002      1.4384584894857766       1
4.1699                    0.15000000000000002      1.435324454512305        1
4.3261                    0.15000000000000002      1.4335421482030708       1
4.4822999999999995        0.15000000000000002      1.4445380296074406       1
4.638499999999999         0.15000000000000002      0.13850884222846016      1
4.7947                    0.15000000000000002      0.24999330733067548      1
4.950900000000001         0.15000000000000002      0.31559746230905805      1
5.1071                    0.15000000000000002      0.34176920758666784      1
5.263300000000001         0.15000000000000002      0.36804594084833414      1
5.419499999999999         0.15000000000000002      0.39417296475294794      1
5.575699999999999         0.15000000000000002      0.39485365427047353      1
5.7318999999999996        0.15000000000000002      0.4078414884535334       1
5.8881                    0.15000000000000002      0.39774012478766846      1
6.0443                    0.15000000000000002      0.3894584409233167       1
6.2005                    0.15000000000000002      0.3938131710054077       1
6.3567                    0.15000000000000002      0.39187558873830813      1
6.5129                    0.15000000000000002      0.3937105844957519       1
6.6691                    0.15000000000000002      0.38734057325615134      1
6.825299999999999         0.15000000000000002      0.38022542467008374      1
6.981499999999999         0.15000000000000002      0.37473815394190807      1
7.137699999999999         0.15000000000000002      0.3735274094404093       1
7.293899999999999         0.15000000000000002      0.3576617493401142       1
7.4501                    0.15000000000000002      0.36361721994527063      1
7.606299999999999         0.15000000000000002      0.37804207109743276      1
7.762499999999999         0.15000000000000002      0.37380980548235626      1
7.918699999999999         0.15000000000000002      0.36220415903684283      1
8.0749                    0.15000000000000002      0.36473307542926287      1
8.2311                    0.15000000000000002      0.3671780450453263       1
8.3873                    0.15000000000000002      0.36921479940146806      1
8.5435                    0.15000000000000002      0.35692238936279364      1
8.6997                    0.15000000000000002      0.36998885140298954      1
8.8559                    0.15000000000000002      0.3478498283380642       1
9.012099999999998         0.15000000000000002      0.34513086027680173      1
9.168299999999999         0.15000000000000002      0.34914960375898546      1
9.324499999999999         0.15000000000000002      0.3413377291902665       1
9.4807                    0.15000000000000002      0.36143574701509384      1
9.636899999999999         0.15000000000000002      0.3582263208457183       1
9.793099999999999         0.15000000000000002      0.33781508932238513      1
9.9493                    0.15000000000000002      0.32604303442882654      1
10.105500000000001        0.15000000000000002      0.3370626962545346       1
10.2617                   0.15000000000000002      0.3351733528683101       1
10.4179                   0.15000000000000002      0.3228469727582166       1
10.5741                   0.15000000000000002      0.3158715221070999       1
10.7303                   0.15000000000000002      0.29946263229719233      1
10.8865                   0.15000000000000002      0.3009553916411343       1
11.042699999999998        0.15000000000000002      0.2989451099084445       1
11.198899999999998        0.15000000000000002      0.29529815236317125      1
11.3551                   0.15000000000000002      0.30484681607484165      1
11.5113                   0.15000000000000002      0.424962809976874        1
11.667499999999999        0.15000000000000002      0.25628004492577217      1
11.823699999999999        0.15000000000000002      0.15556962521450657      1
11.9799                   0.15000000000000002      0.07353112976547156      1
12.1361                   0.15000000000000002      0.022417616654027916     1
12.2923                   0.15000000000000002      -0.00951565037350599     1
12.4485                   0.15000000000000002      -0.028720756071585335    1
12.604700000000001        0.15000000000000002      -0.04234733376286892     1
12.7609                   0.15000000000000002      -0.044460432971296704    1
12.9171                   0.15000000000000002      -0.05117104213165545     1
13.073299999999998        0.15000000000000002      -0.051694074007099924    1
13.229499999999998        0.15000000000000002      -0.0540091138675395      1
13.3857                   0.15000000000000002      -0.05435417371171515     1
13.5419                   0.15000000000000002      -0.05449465518702613     1
-1.9219                   0.25                     -0.0018804469716673972   1
-1.7657                   0.25                     -0.0018968609210922964   1
-1.6095                   0.25                     -0.001922561603969784    1
-1.4533                   0.25                     -0.001961760817194104    1
-1.2971                   0.25                     -0.0020275709143546053   1
-1.1408999999999998       0.25                     -0.0020929449421668717   1
-0.9847000000000001       0.25                     -0.002209360785004527    1
-0.8285000000000002       0.25                     -0.0023256010262309654   1
-0.6723000000000001       0.25                     -0.002512621020241801    1
-0.5161                   0.25                     -0.002720424158203949    1
-0.3599000000000001       0.25                     -0.003108029287055142    1
-0.2037                   0.25                     -0.003722842418998118    1
-0.0475000000000001       0.25                     -0.004895111736645141    1
0.10870000000000002       0.25                     1.4841385720796616       1
0.2648999999999997        0.25                     1.4828202659451621       1
0.42110000000000003       0.25                     1.481256798276846        1
0.5773000000000001        0.25                     1.4803462059654064       1
0.7334999999999998        0.25                     1.478285010532547        1
0.8896999999999999        0.25                     1.4766346030586741       1
1.0459                    0.25                     1.4733084997202532       1
1.2020999999999995        0.25                     1.4722987501282616       1
1.3582999999999996        0.25                     1.4685479029663109       1
1.5144999999999997        0.25                     1.4646268166820966       1
1.6706999999999994        0.25                     1.4629996176891273       1
1.8268999999999995        0.25                     1.4558001601848787       1
1.9831                    0.25                     1.451888520200221        1
2.1393000000000004        0.25                     1.4501718213217305       1
2.2955000000000005        0.25                     1.4453889033542995       1
2.4516999999999993        0.25                     1.4524548613615282       1
2.607899999999999         0.25                     1.437353747654607        1
2.7640999999999996        0.25                     1.4339560128065547       1
2.9203                    0.25                     1.4395299781149298       1
3.0765                    0.25                     1.4299629948058081       1
3.2327000000000004        0.25                     1.4428696722097982       1
3.388899999999999         0.25                     1.4315197795101806       1
3.5450999999999997        0.25                     1.4335560401608078       1
3.7012999999999994        0.25                     1.4332539449315833       1
3.8575                    0.25                     1.4471101526215326       1
4.0137                    0.25                     1.4403971376361349       1
4.1699                    0.25                     1.437755312128338        1
4.3261                    0.25                     1.4353492096692086       1
4.4822999999999995        0.25                     1.4513662182026037       1
4.638499999999999         0.25                     0.13235414218348485      1
4.7947                    0.25                     0.2363818284214906       1
4.950900000000001         0.25                     0.28716877640479643      1
5.1071                    0.25                     0.3344500719455814       1
5.263300000000001         0.25                     0.34456121805386664      1
5.419499999999999         0.25                     0.36462024549833005      1
5.575699999999999         0.25                     0.38093130826717314      1
5.7318999999999996        0.25                     0.3493276471950343       1
5.8881                    0.25                     0.3689221690728731       1
6.0443                    0.25                     0.3732192210770326       1
6.2005                    0.25                     0.37176382772607         1
6.3567                    0.25                     0.3653722018901428       1
6.5129                    0.25                     0.3494872418880303       1
6.6691                    0.25                     0.34658540500861995      1
6.825299999999999         0.25                     0.3528210626384197       1
6.981499999999999         0.25                     0.33135300028762843      1
7.137699999999999         0.25                     0.36137835841164595      1
7.293899999999999         0.25                     0.346950568406665        1
7.4501                    0.25                     0.34640302211854235      1
7.606299999999999         0.25                     0.35544716715061725      1
7.762499999999999         0.25                     0.35121490153554075      1
7.918699999999999         0.25                     0.3452771809018853       1
8.0749                    0.25                     0.3455760168327069       1
8.2311                    0.25                     0.35332222381547257      1
8.3873                    0.25                     0.3246836830083355       1
8.5435                    0.25                     0.32072010080885616      1
8.6997                    0.25                     0.32876811717088705      1
8.8559                    0.25                     0.3188850117406761       1
9.012099999999998         0.25                     0.3108312862220506       1
9.168299999999999         0.25                     0.3281988597312989       1
9.324499999999999         0.25                     0.32870498411186255      1
9.4807                    0.25                     0.3327252623165583       1
9.636899999999999         0.25                     0.3295158361471831       1
9.793099999999999         0.25                     0.33252428008578655      1
9.9493                    0.25                     0.31452235305754356      1
10.105500000000001        0.25                     0.32109211661349646      1
10.2617                   0.25                     0.3192027732272717       1
10.4179                   0.25                     0.328817629425928        1
10.5741                   0.25                     0.3097887918193441       1
10.7303                   0.25                     0.2925799790548338       1
10.8865                   0.25                     0.30204728771456985      1
11.042699999999998        0.25                     0.29458925090109794      1
11.198899999999998        0.25                     0.28074524941408363      1
11.3551                   0.25                     0.31323671866819985      1
11.5113                   0.25                     0.3707613962389949       1
11.667499999999999        0.25                     0.2430006559719572       1
11.823699999999999        0.25                     0.14556180070445712      1
11.9799                   0.25                     0.06468820467938408      1
12.1361                   0.25                     0.019320032958017208     1
12.2923                   0.25                     -0.014064948385075271    1
12.4485                   0.25                     -0.028590331924088552    1
12.604700000000001        0.25                     -0.04117586865510131     1
12.7609                   0.25                     -0.045161804332200184    1
12.9171                   0.25                     -0.051754278368112895    1
13.073299999999998        0.25                     -0.05345900253620771     1
13.229499999999998        0.25                     -0.05380406238038346     1
13.3857                   0.25                     -0.0541491222245591      1
13.5419                   0.25                     -0.05423986924846725     1
-1.9219                   0.35000000000000003      -0.0018770154388197463   1
-1.7657                   0.35000000000000003      -0.0018955889017593618   1
-1.6095                   0.35000000000000003      -0.0019195727467499328   1
-1.4533                   0.35000000000000003      -0.001957025672142683    1
-1.2971                   0.35000000000000003      -0.0020228357693032      1
-1.1408999999999998       0.35000000000000003      -0.002092889709312984    1
-0.9847000000000001       0.35000000000000003      -0.0022110785767311385   1
-0.8285000000000002       0.35000000000000003      -0.002312928294311333    1
-0.6723000000000001       0.35000000000000003      -0.002504694890285805    1
-0.5161                   0.35000000000000003      -0.002693931309156905    1
-0.3599000000000001       0.35000000000000003      -0.003053460534648056    1
-0.2037                   0.35000000000000003      -0.00369124161051948     1
-0.0475000000000001       0.35000000000000003      -0.004863133695108213    1
0.10870000000000002       0.35000000000000003      1.4855960454632378       1
0.2648999999999997        0.35000000000000003      1.4842039503715467       1
0.42110000000000003       0.35000000000000003      1.4829502710743874       1
0.5773000000000001        0.35000000000000003      1.4811566629149922       1
0.7334999999999998        0.35000000000000003      1.4790788796009244       1
0.8896999999999999        0.35000000000000003      1.4773016088379545       1
1.0459                    0.35000000000000003      1.47521574862806         1
1.2020999999999995        0.35000000000000003      1.4727700340085543       1
1.3582999999999996        0.35000000000000003      1.4663714943125536       1
1.5144999999999997        0.35000000000000003      1.46630089933789         1
1.6706999999999994        0.35000000000000003      1.46282383163057         1
1.8268999999999995        0.35000000000000003      1.4595666953238158       1
1.9831                    0.35000000000000003      1.4539988309471064       1
2.1393000000000004        0.35000000000000003      1.448676766267764        1
2.2955000000000005        0.35000000000000003      1.4445349453531664       1
2.4516999999999993        0.35000000000000003      1.4399913541352136       1
2.607899999999999         0.35000000000000003      1.4368766512249334       1
2.7640999999999996        0.35000000000000003      1.434227236869018        1
2.9203                    0.35000000000000003      1.4328308045916813       1
3.0765                    0.35000000000000003      1.4323063431954135       1
3.2327000000000004        0.35000000000000003      1.4328269508282352       1
3.388899999999999         0.35000000000000003      1.4331565856882649       1
3.5450999999999997        0.35000000000000003      1.4323746107455229       1
3.7012999999999994        0.35000000000000003      1.4359408033000407       1
3.8575                    0.35000000000000003      1.4406258576612974       1
4.0137                    0.35000000000000003      1.4448018433444842       1
4.1699                    0.35000000000000003      1.4418685897340016       1
4.3261                    0.35000000000000003      1.441905424106242        1
4.4822999999999995        0.35000000000000003      1.4580954870406542       1
4.638499999999999         0.35000000000000003      0.1092110335420351       1
4.7947                    0.35000000000000003      0.21050231662189878      1
4.950900000000001         0.35000000000000003      0.251242097872766        1
5.1071                    0.35000000000000003      0.2833483877658565       1
5.263300000000001         0.35000000000000003      0.3196058551361305       1
5.419499999999999         0.35000000000000003      0.3100338672870062       1
5.575699999999999         0.35000000000000003      0.30970190364291617      1
5.7318999999999996        0.35000000000000003      0.3261852681756898       1
5.8881                    0.35000000000000003      0.34722208546721756      1
6.0443                    0.35000000000000003      0.3445238274503389       1
6.2005                    0.35000000000000003      0.3381322016144114       1
6.3567                    0.35000000000000003      0.3133043676789019       1
6.5129                    0.35000000000000003      0.3325176074442689       1
6.6691                    0.35000000000000003      0.3268675865796911       1
6.825299999999999         0.35000000000000003      0.32733972346370255      1
6.981499999999999         0.35000000000000003      0.31277499018179583      1
7.137699999999999         0.35000000000000003      0.349229307382882        1
7.293899999999999         0.35000000000000003      0.3321489237665416       1
7.4501                    0.35000000000000003      0.3291888242918143       1
7.606299999999999         0.35000000000000003      0.2986789789197942       1
7.762499999999999         0.35000000000000003      0.29576949480265313      1
7.918699999999999         0.35000000000000003      0.29286001068551215      1
8.0749                    0.35000000000000003      0.2897735611917323       1
8.2311                    0.35000000000000003      0.30061229582743243      1
8.3873                    0.35000000000000003      0.3047236053955195       1
8.5435                    0.35000000000000003      0.30883491496360715      1
8.6997                    0.35000000000000003      0.3138829598506394       1
8.8559                    0.35000000000000003      0.3039998544204282       1
9.012099999999998         0.35000000000000003      0.2997662900531044       1
9.168299999999999         0.35000000000000003      0.24771940842865947      1
9.324499999999999         0.35000000000000003      0.2595857242814025       1
9.4807                    0.35000000000000003      0.255981760647207        1
9.636899999999999         0.35000000000000003      0.30080535144864773      1
9.793099999999999         0.35000000000000003      0.29759592527927176      1
9.9493                    0.35000000000000003      0.303001671686261        1
10.105500000000001        0.35000000000000003      0.2592664842664305       1
10.2617                   0.35000000000000003      0.26324953050062944      1
10.4179                   0.35000000000000003      0.2643175379530985       1