% Model:              cross_talk_new.mph
% Version:            COMSOL 6.2.0.415
% Date:               Feb 3 2025, 16:23
% Dimension:          2
% Nodes:              3000
% Expressions:        2
% Description:        Point
% cpl2x                   cpl2y                    Magnetic flux density, y-component Radius
-1.9219                   0.05                     -0.002428677546540116    1
-1.7657                   0.05                     -0.0024858477200704644   1
-1.6095                   0.05                     -0.002543017893600827    1
-1.4533                   0.05                     -0.002632071410371476    1
-1.2971                   0.05                     -0.002765161289032564    1
-1.1408999999999998       0.05                     -0.002936385600546501    1
-0.9847000000000001       0.05                     -0.0031484619318355687   1
-0.8285000000000002       0.05                     -0.0034060999100907208   1
-0.6723000000000001       0.05                     -0.0036988987375883298   1
-0.5161                   0.05                     -0.004084295893598211    1
-0.3599000000000001       0.05                     -0.004503089396593829    1
-0.2037                   0.05                     -0.004974866309049197    1
-0.0475000000000001       0.05                     -0.0054820467881029344   1
0.10870000000000002       0.05                     1.4071660737907745       1
0.2648999999999997        0.05                     1.4062968436858463       1
0.42110000000000003       0.05                     1.4046775655998385       1
0.5773000000000001        0.05                     1.4022402917176544       1
0.7334999999999998        0.05                     1.3995162287859966       1
0.8896999999999999        0.05                     1.394931381265223        1
1.0459                    0.05                     1.3906485709684717       1
1.2020999999999995        0.05                     1.3861002076156976       1
1.3582999999999996        0.05                     1.3796484573853132       1
1.5144999999999997        0.05                     1.3736089887329221       1
1.6706999999999994        0.05                     1.3674340824889548       1
1.8268999999999995        0.05                     1.3578470141180046       1
1.9831                    0.05                     1.346724973379777        1
2.1393000000000004        0.05                     1.3347583727745924       1
2.2955000000000005        0.05                     1.321306321417009        1
2.4516999999999993        0.05                     1.3070894338670622       1
2.607899999999999         0.05                     1.292872546317116        1
2.7640999999999996        0.05                     1.2674200519578878       1
2.9203                    0.05                     1.2395181417310992       1
3.0765                    0.05                     1.2116162315043129       1
3.2327000000000004        0.05                     1.1630565973064573       1
3.388899999999999         0.05                     1.0691815663499642       1
3.5450999999999997        0.05                     0.9432786402935869       1
3.7012999999999994        0.05                     0.6506119439886229       1
3.8575                    0.05                     0.27321965894275113      1
4.0137                    0.05                     -0.3981209859158268      1
4.1699                    0.05                     -1.3122647268054703      1
4.3261                    0.05                     -1.5475682492702383      1
4.4822999999999995        0.05                     -2.3280377322834056      1
4.638499999999999         0.05                     9.966595572867227        1
4.7947                    0.05                     7.409987686442152        1
4.950900000000001         0.05                     6.412784578675556        1
5.1071                    0.05                     5.95332171160382         1
5.263300000000001         0.05                     5.799367100849027        1
5.419499999999999         0.05                     5.6899708913982145       1
5.575699999999999         0.05                     5.618024851890288        1
5.7318999999999996        0.05                     5.574047746787303        1
5.8881                    0.05                     5.537650823392526        1
6.0443                    0.05                     5.515091823243449        1
6.2005                    0.05                     5.456581527653545        1
6.3567                    0.05                     5.486056871369177        1
6.5129                    0.05                     5.478779278295001        1
6.6691                    0.05                     5.466311626728011        1
6.825299999999999         0.05                     5.477104725858975        1
6.981499999999999         0.05                     5.423440184829655        1
7.137699999999999         0.05                     5.462005297076926        1
7.293899999999999         0.05                     5.4016098722304715       1
7.4501                    0.05                     5.459619190451949        1
7.606299999999999         0.05                     5.463019510808355        1
7.762499999999999         0.05                     5.478041665109517        1
7.918699999999999         0.05                     5.464163727502543        1
8.0749                    0.05                     5.428517027325199        1
8.2311                    0.05                     5.4746989508197865       1
8.3873                    0.05                     5.479692060752055        1
8.5435                    0.05                     5.482176426896955        1
8.6997                    0.05                     5.491543979328467        1
8.8559                    0.05                     5.460415553952277        1
9.012099999999998         0.05                     5.495854055410728        1
9.168299999999999         0.05                     5.48406311503243         1
9.324499999999999         0.05                     5.507866639973784        1
9.4807                    0.05                     5.517314182833086        1
9.636899999999999         0.05                     5.450300702269742        1
9.793099999999999         0.05                     5.5297018732345915       1
9.9493                    0.05                     5.544267988531565        1
10.105500000000001        0.05                     5.552899381707871        1
10.2617                   0.05                     5.557780923306565        1
10.4179                   0.05                     5.586336921766973        1
10.5741                   0.05                     5.611745041389372        1
10.7303                   0.05                     5.5800582521667135       1
10.8865                   0.05                     5.70191550598141         1
11.042699999999998        0.05                     5.7831075229270565       1
11.198899999999998        0.05                     5.986598461895349        1
11.3551                   0.05                     6.350737263594792        1
11.5113                   0.05                     7.435166443367008        1
11.667499999999999        0.05                     -4.238957019804337       1
11.823699999999999        0.05                     -1.9083794536148244      1
11.9799                   0.05                     -0.8481211519500178      1
12.1361                   0.05                     -0.5090604037126756      1
12.2923                   0.05                     -0.32786986680534014     1
12.4485                   0.05                     -0.24024377962072974     1
12.604700000000001        0.05                     -0.17824880131134746     1
12.7609                   0.05                     -0.15147248858287055     1
12.9171                   0.05                     -0.12469617585439341     1
13.073299999999998        0.05                     -0.10854672628581286     1
13.229499999999998        0.05                     -0.10242706620196923     1
13.3857                   0.05                     -0.09630740611812566     1
13.5419                   0.05                     -0.09018774603428237     1
-1.9219                   0.15000000000000002      -0.002447183076941454    1
-1.7657                   0.15000000000000002      -0.0024771084950068476   1
-1.6095                   0.15000000000000002      -0.0025342786685372282   1
-1.4533                   0.15000000000000002      -0.0026314827651194687   1
-1.2971                   0.15000000000000002      -0.0027534717971568895   1
-1.1408999999999998       0.15000000000000002      -0.002924696108670799    1
-0.9847000000000001       0.15000000000000002      -0.003144108481294948    1
-0.8285000000000002       0.15000000000000002      -0.003392519707423769    1
-0.6723000000000001       0.15000000000000002      -0.0037133177533499317   1
-0.5161                   0.15000000000000002      -0.004074212899256802    1
-0.3599000000000001       0.15000000000000002      -0.004499037619134061    1
-0.2037                   0.15000000000000002      -0.004971074375303974    1
-0.0475000000000001       0.15000000000000002      -0.005480291755439737    1
0.10870000000000002       0.15000000000000002      1.4071702446133276       1
0.2648999999999997        0.15000000000000002      1.406259128005507        1
0.42110000000000003       0.15000000000000002      1.4046293565633494       1
0.5773000000000001        0.15000000000000002      1.4023302554010506       1
0.7334999999999998        0.15000000000000002      1.3994857393760598       1
0.8896999999999999        0.15000000000000002      1.3955208240721948       1
1.0459                    0.15000000000000002      1.3906897259428745       1
1.2020999999999995        0.15000000000000002      1.3859679071601083       1
1.3582999999999996        0.15000000000000002      1.3798172786595835       1
1.5144999999999997        0.15000000000000002      1.3740474982726516       1
1.6706999999999994        0.15000000000000002      1.3672507116744244       1
1.8268999999999995        0.15000000000000002      1.3584069501428016       1
1.9831                    0.15000000000000002      1.3468836123771144       1
2.1393000000000004        0.15000000000000002      1.3345918864537059       1
2.2955000000000005        0.15000000000000002      1.3218224359796356       1
2.4516999999999993        0.15000000000000002      1.3076055484296902       1
2.607899999999999         0.15000000000000002      1.2903659392783393       1
2.7640999999999996        0.15000000000000002      1.265077230827964        1
2.9203                    0.15000000000000002      1.2402281940497502       1
3.0765                    0.15000000000000002      1.2094723156738674       1
3.2327000000000004        0.15000000000000002      1.1667571768710134       1
3.388899999999999         0.15000000000000002      1.0590162084122916       1
3.5450999999999997        0.15000000000000002      0.9384360027072844       1
3.7012999999999994        0.15000000000000002      0.6551614479483394       1
3.8575                    0.15000000000000002      0.2581279352370789       1
4.0137                    0.15000000000000002      -0.37258419068653126     1
4.1699                    0.15000000000000002      -1.3901093705426177      1
4.3261                    0.15000000000000002      -1.3942536459336097      1
4.4822999999999995        0.15000000000000002      -2.253521781721375       1
4.638499999999999         0.15000000000000002      10.101841695030338       1
4.7947                    0.15000000000000002      7.469396663631301        1
4.950900000000001         0.15000000000000002      6.550765979354194        1
5.1071                    0.15000000000000002      6.236217995240828        1
5.263300000000001         0.15000000000000002      6.020252339924978        1
5.419499999999999         0.15000000000000002      5.871687608345937        1
5.575699999999999         0.15000000000000002      5.844373144374578        1
5.7318999999999996        0.15000000000000002      5.813692340154148        1
5.8881                    0.15000000000000002      5.7554657675366165       1
6.0443                    0.15000000000000002      5.677427565660071        1
6.2005                    0.15000000000000002      5.710640523314092        1
6.3567                    0.15000000000000002      5.649610714772949        1
6.5129                    0.15000000000000002      5.676654927077421        1
6.6691                    0.15000000000000002      5.678612464945535        1
6.825299999999999         0.15000000000000002      5.680288784969244        1
6.981499999999999         0.15000000000000002      5.669985652658014        1
7.137699999999999         0.15000000000000002      5.624444731093397        1
7.293899999999999         0.15000000000000002      5.683104839886757        1
7.4501                    0.15000000000000002      5.65322591534571         1
7.606299999999999         0.15000000000000002      5.685850081736245        1
7.762499999999999         0.15000000000000002      5.66345592623532         1
7.918699999999999         0.15000000000000002      5.632780076474608        1
8.0749                    0.15000000000000002      5.6776918135033965       1
8.2311                    0.15000000000000002      5.642344334149127        1
8.3873                    0.15000000000000002      5.704380716416844        1
8.5435                    0.15000000000000002      5.705059953909224        1
8.6997                    0.15000000000000002      5.702081933710424        1
8.8559                    0.15000000000000002      5.712231501408267        1
9.012099999999998         0.15000000000000002      5.663467736179049        1
9.168299999999999         0.15000000000000002      5.723681146650358        1
9.324499999999999         0.15000000000000002      5.678544502856274        1
9.4807                    0.15000000000000002      5.735708694320127        1
9.636899999999999         0.15000000000000002      5.777590408321784        1
9.793099999999999         0.15000000000000002      5.70589731513485         1
9.9493                    0.15000000000000002      5.769760602873576        1
10.105500000000001        0.15000000000000002      5.746364621022841        1
10.2617                   0.15000000000000002      5.803686471225095        1
10.4179                   0.15000000000000002      5.827043196620227        1
10.5741                   0.15000000000000002      5.820289227972354        1
10.7303                   0.15000000000000002      5.900820800260094        1
10.8865                   0.15000000000000002      5.870098948938954        1
11.042699999999998        0.15000000000000002      5.971574349507092        1
11.198899999999998        0.15000000000000002      6.104873079148019        1
11.3551                   0.15000000000000002      6.569699360693903        1
11.5113                   0.15000000000000002      7.628632013104816        1
11.667499999999999        0.15000000000000002      -4.1487552081912025      1
11.823699999999999        0.15000000000000002      -1.747420697495503       1
11.9799                   0.15000000000000002      -0.8717055019312845      1
12.1361                   0.15000000000000002      -0.4900941395967946      1
12.2923                   0.15000000000000002      -0.32732551907401897     1
12.4485                   0.15000000000000002      -0.2345336479338629      1
12.604700000000001        0.15000000000000002      -0.1788110718593856      1
12.7609                   0.15000000000000002      -0.14838356409990527     1
12.9171                   0.15000000000000002      -0.1260798852602305      1
13.073299999999998        0.15000000000000002      -0.10985006564128486     1
13.229499999999998        0.15000000000000002      -0.10110792817263695     1
13.3857                   0.15000000000000002      -0.09498826808879329     1
13.5419                   0.15000000000000002      -0.09237135962112969     1
-1.9219                   0.25                     -0.0024404683790841823   1
-1.7657                   0.25                     -0.002473122564261507    1
-1.6095                   0.25                     -0.0025255394434736053   1
-1.4533                   0.25                     -0.0026308941198674232   1
-1.2971                   0.25                     -0.0027445032070654712   1
-1.1408999999999998       0.25                     -0.0029104003099995057   1
-0.9847000000000001       0.25                     -0.0031397550307543792   1
-0.8285000000000002       0.25                     -0.003369109751509114    1
-0.6723000000000001       0.25                     -0.0037057561237976433   1
-0.5161                   0.25                     -0.004068787672678376    1
-0.3599000000000001       0.25                     -0.004486486958402147    1
-0.2037                   0.25                     -0.004961912449212402    1
-0.0475000000000001       0.25                     -0.005475995701316627    1
0.10870000000000002       0.25                     1.4070516832901605       1
0.2648999999999997        0.25                     1.406179821825801        1
0.42110000000000003       0.25                     1.4045591730069573       1
0.5773000000000001        0.25                     1.4023864835905424       1
0.7334999999999998        0.25                     1.399455249966132        1
0.8896999999999999        0.25                     1.395473109133135        1
1.0459                    0.25                     1.3911115231389228       1
1.2020999999999995        0.25                     1.3857511033230248       1
1.3582999999999996        0.25                     1.3803906835071214       1
1.5144999999999997        0.25                     1.3738641274581207       1
1.6706999999999994        0.25                     1.3670673408598935       1
1.8268999999999995        0.25                     1.3589668861675985       1
1.9831                    0.25                     1.3467171260562263       1
2.1393000000000004        0.25                     1.3344254001328215       1
2.2955000000000005        0.25                     1.3215948391722838       1
2.4516999999999993        0.25                     1.3084249504201275       1
2.607899999999999         0.25                     1.2899926262976318       1
2.7640999999999996        0.25                     1.2643827934577434       1
2.9203                    0.25                     1.2409382463683993       1
3.0765                    0.25                     1.2080068471363452       1
3.2327000000000004        0.25                     1.1614677539961935       1
3.388899999999999         0.25                     1.0572702287885072       1
3.5450999999999997        0.25                     0.9335933651209825       1
3.7012999999999994        0.25                     0.6673908025578168       1
3.8575                    0.25                     0.24746958460091184      1
4.0137                    0.25                     -0.36635000663088624     1
4.1699                    0.25                     -1.3116372796810793      1
4.3261                    0.25                     -1.5843829357442587      1
4.4822999999999995        0.25                     -2.2684883615384592      1
4.638499999999999         0.25                     10.436486672894368       1
4.7947                    0.25                     7.942568372353744        1
4.950900000000001         0.25                     7.056441897097059        1
5.1071                    0.25                     6.591470458208825        1
5.263300000000001         0.25                     6.438556561094666        1
5.419499999999999         0.25                     6.317030529348388        1
5.575699999999999         0.25                     6.256129777482178        1
5.7318999999999996        0.25                     6.147403851637408        1
5.8881                    0.25                     6.160147034245935        1
6.0443                    0.25                     6.121637288088628        1
6.2005                    0.25                     6.119189545920429        1
6.3567                    0.25                     5.835527050524263        1
6.5129                    0.25                     6.140122990275871        1
6.6691                    0.25                     6.160889629280612        1
6.825299999999999         0.25                     6.036351014757386        1
6.981499999999999         0.25                     6.081146865248624        1
7.137699999999999         0.25                     5.912737068160993        1
7.293899999999999         0.25                     6.031420357696323        1
7.4501                    0.25                     5.988557541999619        1
7.606299999999999         0.25                     6.062061721482085        1
7.762499999999999         0.25                     6.124121793185043        1
7.918699999999999         0.25                     5.8253407448835475       1
8.0749                    0.25                     6.151786347938977        1
8.2311                    0.25                     6.120845100138297        1
8.3873                    0.25                     6.050898704295159        1
8.5435                    0.25                     6.0654458587679265       1
8.6997                    0.25                     6.050440213795877        1
8.8559                    0.25                     6.082321499588061        1
9.012099999999998         0.25                     5.817680410410464        1
9.168299999999999         0.25                     6.1346634245103395       1
9.324499999999999         0.25                     6.152211898841081        1
9.4807                    0.25                     6.058941392243922        1
9.636899999999999         0.25                     6.1048801143738345       1
9.793099999999999         0.25                     6.15860285256926         1
9.9493                    0.25                     6.144926167956298        1
10.105500000000001        0.25                     6.146399335849885        1
10.2617                   0.25                     6.1542238497218555       1
10.4179                   0.25                     6.2328569296033045       1
10.5741                   0.25                     6.073073923494341        1
10.7303                   0.25                     6.221583348353466        1
10.8865                   0.25                     6.271632031934905        1
11.042699999999998        0.25                     6.438089055893864        1
11.198899999999998        0.25                     6.716358812951359        1
11.3551                   0.25                     6.952401117854677        1
11.5113                   0.25                     7.956136848480039        1
11.667499999999999        0.25                     -3.801957821606548       1
11.823699999999999        0.25                     -1.6383585939386327      1
11.9799                   0.25                     -0.8701544384500615      1
12.1361                   0.25                     -0.493961409980634       1
12.2923                   0.25                     -0.31959341915383055     1
12.4485                   0.25                     -0.23264718136532192     1
12.604700000000001        0.25                     -0.17692460529084286     1
12.7609                   0.25                     -0.14529463961693967     1
12.9171                   0.25                     -0.12593584866948115     1
13.073299999999998        0.25                     -0.10970602905053528     1
13.229499999999998        0.25                     -0.09978879014330462     1
13.3857                   0.25                     -0.09533272644525577     1
13.5419                   0.25                     -0.09165575547090864     1
-1.9219                   0.35                     -0.002433753681226924    1
-1.7657                   0.35                     -0.0024664078664042646   1
-1.6095                   0.35                     -0.0025168002184099703   1
-1.4533                   0.35                     -0.002630305474615409    1
-1.2971                   0.35                     -0.002743914561813443    1
-1.1408999999999998       0.35                     -0.0028994342388271033   1
-0.9847000000000001       0.35                     -0.0031288553540405606   1
-0.8285000000000002       0.35                     -0.003364335068256806    1
-0.6723000000000001       0.35                     -0.0036812235954240546   1
-0.5161                   0.35                     -0.004046441106351134    1
-0.3599000000000001       0.35                     -0.004467425563800198    1
-0.2037                   0.35                     -0.004950860452299227    1
-0.0475000000000001       0.35                     -0.005469820531771141    1
0.10870000000000002       0.35                     1.4070309093052487       1
0.2648999999999997        0.35                     1.4061980726037917       1
0.42110000000000003       0.35                     1.404594703919681        1
0.5773000000000001        0.35                     1.402349944569071        1
0.7334999999999998        0.35                     1.3993248183361242       1
0.8896999999999999        0.35                     1.3954267081981837       1
1.0459                    0.35                     1.3910858285436767       1
1.2020999999999995        0.35                     1.3856913441660363       1
1.3582999999999996        0.35                     1.3805473077193255       1
1.5144999999999997        0.35                     1.3743184278205103       1
1.6706999999999994        0.35                     1.3668624926867927       1
1.8268999999999995        0.35                     1.3592840577493368       1
1.9831                    0.35                     1.346419002877811        1
2.1393000000000004        0.35                     1.3350085501557283       1
2.2955000000000005        0.35                     1.3210437389254777       1
2.4516999999999993        0.35                     1.3081632454423051       1
2.607899999999999         0.35                     1.2909066360720676       1
2.7640999999999996        0.35                     1.2667871976480114       1
2.9203                    0.35                     1.2447470471518285       1
3.0765                    0.35                     1.2051072059151733       1
3.2327000000000004        0.35                     1.1577687518928474       1
3.388899999999999         0.35                     1.055437664862146        1
3.5450999999999997        0.35                     0.9088476625072794       1
3.7012999999999994        0.35                     0.6458086556971638       1
3.8575                    0.35                     0.23035423973265523      1
4.0137                    0.35                     -0.39522368023981613     1
4.1699                    0.35                     -1.3438058738613528      1
4.3261                    0.35                     -1.4770168583670085      1
4.4822999999999995        0.35                     -2.0999041099139504      1
4.638499999999999         0.35                     11.04097511203286        1
4.7947                    0.35                     8.780214780565942        1
4.950900000000001         0.35                     8.048510914361408        1
5.1071                    0.35                     7.743075845734741        1
5.263300000000001         0.35                     7.47178832683745         1
5.419499999999999         0.35                     7.567251405353866        1
5.575699999999999         0.35                     7.280026187471273        1
5.7318999999999996        0.35                     7.440224789560826        1
5.8881                    0.35                     7.2242517088389          1
6.0443                    0.35                     7.369384883952728        1
6.2005                    0.35                     7.172348502535867        1
6.3567                    0.35                     7.282735063378002        1
6.5129                    0.35                     7.241915858380075        1
6.6691                    0.35                     7.153328198327204        1
6.825299999999999         0.35                     7.307013335547381        1
6.981499999999999         0.35                     7.124431490460834        1
7.137699999999999         0.35                     7.292274082296624        1
7.293899999999999         0.35                     7.148266155460682        1
7.4501                    0.35                     7.18024723775345         1
7.606299999999999         0.35                     7.157234277933763        1
7.762499999999999         0.35                     7.149697598186908        1
7.918699999999999         0.35                     7.220628337328683        1
8.0749                    0.35                     7.161361205181193        1
8.2311                    0.35                     7.218351407115968        1
8.3873                    0.35                     7.139444017476143        1
8.5435                    0.35                     7.271099452956852        1
8.6997                    0.35                     7.243796722311059        1
8.8559                    0.35                     7.1775719389883035       1
9.012099999999998         0.35                     7.252647491452927        1
9.168299999999999         0.35                     7.1685032314780734       1
9.324499999999999         0.35                     7.2983360949268885       1
9.4807                    0.35                     7.200501155417005        1
9.636899999999999         0.35                     7.205411368191662        1
9.793099999999999         0.35                     7.284254791587925        1
9.9493                    0.35                     7.320689594716626        1
10.105500000000001        0.35                     7.2624977173640275       1
10.2617                   0.35                     7.245352084262244        1
10.4179                   0.35                     7.373206403996164        1