% Model:              cross_talk_new.mph
% Version:            COMSOL 6.2.0.415
% Date:               Feb 3 2025, 16:23
% Dimension:          2
% Nodes:              3000
% Expressions:        2
% Description:        Point
% cpl2x                   cpl2y                    Magnetic flux density, y-component Radius
-1.9219                   0.05                     -0.0023959499083316318   1
-1.7657                   0.05                     -0.0024391703560123768   1
-1.6095                   0.05                     -0.0025080338170938785   1
-1.4533                   0.05                     -0.002578247410851428    1
-1.2971                   0.05                     -0.0026974629820983257   1
-1.1408999999999998       0.05                     -0.0028715400291993015   1
-0.9847000000000001       0.05                     -0.0030750304544278693   1
-0.8285000000000002       0.05                     -0.0033403674965734043   1
-0.6723000000000001       0.05                     -0.0036445409900854875   1
-0.5161                   0.05                     -0.004001590680516795    1
-0.3599000000000001       0.05                     -0.004434871880579269    1
-0.2037                   0.05                     -0.004924736423134846    1
-0.0475000000000001       0.05                     -0.005454112126271293    1
0.10870000000000002       0.05                     1.4175454453341376       1
0.2648999999999997        0.05                     1.416781021298972        1
0.42110000000000003       0.05                     1.4155749529879602       1
0.5773000000000001        0.05                     1.4130548100388194       1
0.7334999999999998        0.05                     1.4108556151444291       1
0.8896999999999999        0.05                     1.4071384561044962       1
1.0459                    0.05                     1.4032264625144868       1
1.2020999999999995        0.05                     1.3994504411687017       1
1.3582999999999996        0.05                     1.393556472433795        1
1.5144999999999997        0.05                     1.3889935613573072       1
1.6706999999999994        0.05                     1.3825825269030196       1
1.8268999999999995        0.05                     1.375486806595266        1
1.9831                    0.05                     1.3666381332476152       1
2.1393000000000004        0.05                     1.3578849714508772       1
2.2955000000000005        0.05                     1.3458061287367915       1
2.4516999999999993        0.05                     1.3302761552183808       1
2.607899999999999         0.05                     1.3165869740236862       1
2.7640999999999996        0.05                     1.3029708804392017       1
2.9203                    0.05                     1.266279918239281        1
3.0765                    0.05                     1.2480637264301433       1
3.2327000000000004        0.05                     1.2090282209493086       1
3.388899999999999         0.05                     1.1587279545254803       1
3.5450999999999997        0.05                     1.0313731476741113       1
3.7012999999999994        0.05                     0.900738838776376        1
3.8575                    0.05                     0.6039313875299595       1
4.0137                    0.05                     0.15440591687808014      1
4.1699                    0.05                     -0.6191844238383784      1
4.3261                    0.05                     0.06521019660483063      1
4.4822999999999995        0.05                     0.9259846172815767       1
4.638499999999999         0.05                     3.0476792458270427       1
4.7947                    0.05                     4.463819072213765        1
4.950900000000001         0.05                     4.711435684901746        1
5.1071                    0.05                     4.692437882116401        1
5.263300000000001         0.05                     4.701911723112225        1
5.419499999999999         0.05                     4.596372676773258        1
5.575699999999999         0.05                     4.675374274710687        1
5.7318999999999996        0.05                     4.531456240815124        1
5.8881                    0.05                     4.510276209489512        1
6.0443                    0.05                     4.492929883765599        1
6.2005                    0.05                     4.482197902811768        1
6.3567                    0.05                     4.524586322650069        1
6.5129                    0.05                     4.470483292094676        1
6.6691                    0.05                     4.46491454552223         1
6.825299999999999         0.05                     4.464081373521067        1
6.981499999999999         0.05                     4.460673576868606        1
7.137699999999999         0.05                     4.457948452668366        1
7.293899999999999         0.05                     4.456479402059777        1
7.4501                    0.05                     4.458184660996121        1
7.606299999999999         0.05                     4.460505099377285        1
7.762499999999999         0.05                     4.4799150968067245       1
7.918699999999999         0.05                     4.4651154508875335       1
8.0749                    0.05                     4.463231921125443        1
8.2311                    0.05                     4.470198683779445        1
8.3873                    0.05                     4.47950402123852         1
8.5435                    0.05                     4.474788219600019        1
8.6997                    0.05                     4.485134665225597        1
8.8559                    0.05                     4.486736251206779        1
9.012099999999998         0.05                     4.493383240196801        1
9.168299999999999         0.05                     4.518601373374541        1
9.324499999999999         0.05                     4.50550608572838         1
9.4807                    0.05                     4.518660939275545        1
9.636899999999999         0.05                     4.520373206248668        1
9.793099999999999         0.05                     4.544333926932879        1
9.9493                    0.05                     4.534540472126648        1
10.105500000000001        0.05                     4.544691548794126        1
10.2617                   0.05                     4.551872453214435        1
10.4179                   0.05                     4.575290941799363        1
10.5741                   0.05                     4.600378920940868        1
10.7303                   0.05                     4.608448282963743        1
10.8865                   0.05                     4.652500383085194        1
11.042699999999998        0.05                     4.65137220083888         1
11.198899999999998        0.05                     4.664614728761958        1
11.3551                   0.05                     4.571018571681083        1
11.5113                   0.05                     4.031024627634739        1
11.667499999999999        0.05                     0.9429602450397514       1
11.823699999999999        0.05                     -0.14783414352619872     1
11.9799                   0.05                     -0.32503977634295234     1
12.1361                   0.05                     -0.2974352537940673      1
12.2923                   0.05                     -0.2337366001044063      1
12.4485                   0.05                     -0.1878774177309947      1
12.604700000000001        0.05                     -0.16047907222955393     1
12.7609                   0.05                     -0.14049043933064942     1
12.9171                   0.05                     -0.1137709351043461      1
13.073299999999998        0.05                     -0.10421423365091853     1
13.229499999999998        0.05                     -0.09863990918026122     1
13.3857                   0.05                     -0.0922311090337788      1
13.5419                   0.05                     -0.08839102497493112     1
-1.9219                   0.15000000000000002      -0.0023958473338466977   1
-1.7657                   0.15000000000000002      -0.0024348348500808537   1
-1.6095                   0.15000000000000002      -0.0024763090469825744   1
-1.4533                   0.15000000000000002      -0.0025782160691494773   1
-1.2971                   0.15000000000000002      -0.002694063416530317    1
-1.1408999999999998       0.15000000000000002      -0.0028609766794347735   1
-0.9847000000000001       0.15000000000000002      -0.003053260009657416    1
-0.8285000000000002       0.15000000000000002      -0.003321392592930481    1
-0.6723000000000001       0.15000000000000002      -0.003638415874151313    1
-0.5161                   0.15000000000000002      -0.00398784601234653     1
-0.3599000000000001       0.15000000000000002      -0.004430349308308178    1
-0.2037                   0.15000000000000002      -0.0049162219917633365   1
-0.0475000000000001       0.15000000000000002      -0.0054481090838907065   1
0.10870000000000002       0.15000000000000002      1.4174220222728884       1
0.2648999999999997        0.15000000000000002      1.4166353911034903       1
0.42110000000000003       0.15000000000000002      1.415301883783315        1
0.5773000000000001        0.15000000000000002      1.4132081394063394       1
0.7334999999999998        0.15000000000000002      1.4111379175479541       1
0.8896999999999999        0.15000000000000002      1.4075249105823098       1
1.0459                    0.15000000000000002      1.4031728537130892       1
1.2020999999999995        0.15000000000000002      1.3989096394542724       1
1.3582999999999996        0.15000000000000002      1.3928992753406515       1
1.5144999999999997        0.15000000000000002      1.3884128974318137       1
1.6706999999999994        0.15000000000000002      1.3820790848231537       1
1.8268999999999995        0.15000000000000002      1.3744177185664765       1
1.9831                    0.15000000000000002      1.3664627411367374       1
2.1393000000000004        0.15000000000000002      1.3572210612634794       1
2.2955000000000005        0.15000000000000002      1.34462338475984         1
2.4516999999999993        0.15000000000000002      1.3286242576248881       1
2.607899999999999         0.15000000000000002      1.3171837674551115       1
2.7640999999999996        0.15000000000000002      1.297960227576812        1
2.9203                    0.15000000000000002      1.2774421335003026       1
3.0765                    0.15000000000000002      1.2481754980322335       1
3.2327000000000004        0.15000000000000002      1.2040750470042842       1
3.388899999999999         0.15000000000000002      1.1568899274426478       1
3.5450999999999997        0.15000000000000002      1.0445951333092518       1
3.7012999999999994        0.15000000000000002      0.889733291638978        1
3.8575                    0.15000000000000002      0.5865274121551076       1
4.0137                    0.15000000000000002      0.13078094614772162      1
4.1699                    0.15000000000000002      -0.4961785283846236      1
4.3261                    0.15000000000000002      -0.08161392694212743     1
4.4822999999999995        0.15000000000000002      0.868840277352632        1
4.638499999999999         0.15000000000000002      2.9308160376747954       1
4.7947                    0.15000000000000002      4.394503176859664        1
4.950900000000001         0.15000000000000002      4.667198654300141        1
5.1071                    0.15000000000000002      4.674025173363681        1
5.263300000000001         0.15000000000000002      4.5760624305183235       1
5.419499999999999         0.15000000000000002      4.579206246628051        1
5.575699999999999         0.15000000000000002      4.469725518909446        1
5.7318999999999996        0.15000000000000002      4.462255738368714        1
5.8881                    0.15000000000000002      4.444089415591395        1
6.0443                    0.15000000000000002      4.403960110594099        1
6.2005                    0.15000000000000002      4.439029547580464        1
6.3567                    0.15000000000000002      4.386287284369862        1
6.5129                    0.15000000000000002      4.438974147001045        1
6.6691                    0.15000000000000002      4.441957048469888        1
6.825299999999999         0.15000000000000002      4.41615928997381         1
6.981499999999999         0.15000000000000002      4.434868836343788        1
7.137699999999999         0.15000000000000002      4.3792274279550725       1
7.293899999999999         0.15000000000000002      4.382081155174491        1
7.4501                    0.15000000000000002      4.423519247876211        1
7.606299999999999         0.15000000000000002      4.438256621245096        1
7.762499999999999         0.15000000000000002      4.402788771088721        1
7.918699999999999         0.15000000000000002      4.411472909931847        1
8.0749                    0.15000000000000002      4.4400015608869765       1
8.2311                    0.15000000000000002      4.41773928425924         1
8.3873                    0.15000000000000002      4.4501481931751155       1
8.5435                    0.15000000000000002      4.405007895453413        1
8.6997                    0.15000000000000002      4.428660015236131        1
8.8559                    0.15000000000000002      4.431837406352857        1
9.012099999999998         0.15000000000000002      4.426123831364732        1
9.168299999999999         0.15000000000000002      4.442924865915144        1
9.324499999999999         0.15000000000000002      4.476482472323267        1
9.4807                    0.15000000000000002      4.489030883718652        1
9.636899999999999         0.15000000000000002      4.466340223101445        1
9.793099999999999         0.15000000000000002      4.50265643235219         1
9.9493                    0.15000000000000002      4.480808476023819        1
10.105500000000001        0.15000000000000002      4.489376310723682        1
10.2617                   0.15000000000000002      4.521099140736439        1
10.4179                   0.15000000000000002      4.503271883683931        1
10.5741                   0.15000000000000002      4.560020291707277        1
10.7303                   0.15000000000000002      4.592400250367535        1
10.8865                   0.15000000000000002      4.578081520721689        1
11.042699999999998        0.15000000000000002      4.6145861005994275       1
11.198899999999998        0.15000000000000002      4.603136629194198        1
11.3551                   0.15000000000000002      4.595303032767079        1
11.5113                   0.15000000000000002      3.954809899079791        1
11.667499999999999        0.15000000000000002      0.9255370387029216       1
11.823699999999999        0.15000000000000002      -0.17300574102181487     1
11.9799                   0.15000000000000002      -0.31610582752485156     1
12.1361                   0.15000000000000002      -0.2959873982693186      1
12.2923                   0.15000000000000002      -0.22940057188232676     1
12.4485                   0.15000000000000002      -0.19169766091905516     1
12.604700000000001        0.15000000000000002      -0.15529378022530252     1
12.7609                   0.15000000000000002      -0.13168215001385153     1
12.9171                   0.15000000000000002      -0.11594859423162068     1
13.073299999999998        0.15000000000000002      -0.10366692807322228     1
13.229499999999998        0.15000000000000002      -0.09606024803952273     1
13.3857                   0.15000000000000002      -0.09160300379310295     1
13.5419                   0.15000000000000002      -0.08776291973425526     1
-1.9219                   0.25                     -0.0023923145537416406   1
-1.7657                   0.25                     -0.002434055650526304    1
-1.6095                   0.25                     -0.002471398258985409    1
-1.4533                   0.25                     -0.0025701101990221777   1
-1.2971                   0.25                     -0.002681624141950707    1
-1.1408999999999998       0.25                     -0.0028539554947379763   1
-0.9847000000000001       0.25                     -0.0030701153385506164   1
-0.8285000000000002       0.25                     -0.0033064286486764434   1
-0.6723000000000001       0.25                     -0.00361738799852266     1
-0.5161                   0.25                     -0.003972118021290716    1
-0.3599000000000001       0.25                     -0.004413826743361882    1
-0.2037                   0.25                     -0.004905898695456212    1
-0.0475000000000001       0.25                     -0.0054446412590376525   1
0.10870000000000002       0.25                     1.4176812749308318       1
0.2648999999999997        0.25                     1.4168756850047695       1
0.42110000000000003       0.25                     1.4153219224617652       1
0.5773000000000001        0.25                     1.4135702174371494       1
0.7334999999999998        0.25                     1.4109451342058899       1
0.8896999999999999        0.25                     1.407729261027713        1
1.0459                    0.25                     1.4031570404610638       1
1.2020999999999995        0.25                     1.3980010850790232       1
1.3582999999999996        0.25                     1.3943639395585494       1
1.5144999999999997        0.25                     1.388148607843574        1
1.6706999999999994        0.25                     1.3749616734607208       1
1.8268999999999995        0.25                     1.3718863512839332       1
1.9831                    0.25                     1.3660056698412468       1
2.1393000000000004        0.25                     1.355484046844403        1
2.2955000000000005        0.25                     1.3434406407828914       1
2.4516999999999993        0.25                     1.3303579525217175       1
2.607899999999999         0.25                     1.3115542821703388       1
2.7640999999999996        0.25                     1.2954528735342583       1
2.9203                    0.25                     1.2749040634631994       1
3.0765                    0.25                     1.2258608125726629       1
3.2327000000000004        0.25                     1.2011422637856186       1
3.388899999999999         0.25                     1.150875010133248        1
3.5450999999999997        0.25                     1.043522453640798        1
3.7012999999999994        0.25                     0.8692257683470921       1
3.8575                    0.25                     0.5754054505354262       1
4.0137                    0.25                     0.1455114439040952       1
4.1699                    0.25                     -0.5381350494488135      1
4.3261                    0.25                     -0.0707058219292982      1
4.4822999999999995        0.25                     0.8690010567451628       1
4.638499999999999         0.25                     2.930533140973077        1
4.7947                    0.25                     4.1662263948225355       1
4.950900000000001         0.25                     4.525886499744617        1
5.1071                    0.25                     4.684690605760437        1
5.263300000000001         0.25                     4.459347462859991        1
5.419499999999999         0.25                     4.444440166863167        1
5.575699999999999         0.25                     4.357764568892969        1
5.7318999999999996        0.25                     4.36765528304362         1
5.8881                    0.25                     4.535086059160864        1
6.0443                    0.25                     4.314012152927152        1
6.2005                    0.25                     4.301974036435137        1
6.3567                    0.25                     4.272631006657171        1
6.5129                    0.25                     4.260935743097333        1
6.6691                    0.25                     4.211674046986241        1
6.825299999999999         0.25                     4.2737241777937065       1
6.981499999999999         0.25                     4.233062022330151        1
7.137699999999999         0.25                     4.225375738614083        1
7.293899999999999         0.25                     4.234649209571609        1
7.4501                    0.25                     4.2166394978570985       1
7.606299999999999         0.25                     4.236410875279635        1
7.762499999999999         0.25                     4.246276979773047        1
7.918699999999999         0.25                     4.302823480645337        1
8.0749                    0.25                     4.2524161053450165       1
8.2311                    0.25                     4.376561434702321        1
8.3873                    0.25                     4.254017947873217        1
8.5435                    0.25                     4.350845030126373        1
8.6997                    0.25                     4.263417038901563        1
8.8559                    0.25                     4.281120298391026        1
9.012099999999998         0.25                     4.208526952219569        1
9.168299999999999         0.25                     4.3026481072351555       1
9.324499999999999         0.25                     4.346399261711017        1
9.4807                    0.25                     4.313505643749357        1
9.636899999999999         0.25                     4.34215950595887         1
9.793099999999999         0.25                     4.28167091090179         1
9.9493                    0.25                     4.34251360664015         1
10.105500000000001        0.25                     4.358722093724207        1
10.2617                   0.25                     4.384468763094236        1
10.4179                   0.25                     4.3596936732688105       1
10.5741                   0.25                     4.364557144213089        1
10.7303                   0.25                     4.532040843964013        1
10.8865                   0.25                     4.4260774798141185       1
11.042699999999998        0.25                     4.438792817885355        1
11.198899999999998        0.25                     4.43290496488148         1
11.3551                   0.25                     4.392266080378312        1
11.5113                   0.25                     3.8030996593854685       1
11.667499999999999        0.25                     0.7785357015432086       1
11.823699999999999        0.25                     -0.15880512637751232     1
11.9799                   0.25                     -0.3121966986190079      1
12.1361                   0.25                     -0.2911537823711724      1
12.2923                   0.25                     -0.23388239290691493     1
12.4485                   0.25                     -0.18621915969091962     1
12.604700000000001        0.25                     -0.15052971408341567     1
12.7609                   0.25                     -0.1314686305057698      1
12.9171                   0.25                     -0.11466872786827143     1
13.073299999999998        0.25                     -0.10241281059830509     1
13.229499999999998        0.25                     -0.09512440401280159     1
13.3857                   0.25                     -0.09066921761536678     1
13.5419                   0.25                     -0.08713481449357918     1
-1.9219                   0.35                     -0.00238785333993089     1
-1.7657                   0.35                     -0.0024291448625291413   1
-1.6095                   0.35                     -0.0024664874709882413   1
-1.4533                   0.35                     -0.002556954654706102    1
-1.2971                   0.35                     -0.0026867182608670444   1
-1.1408999999999998       0.35                     -0.0028480666715756256   1
-0.9847000000000001       0.35                     -0.003044370900941208    1
-0.8285000000000002       0.35                     -0.0032913398640249513   1
-0.6723000000000001       0.35                     -0.003596932191331198    1
-0.5161                   0.35                     -0.003977791673087707    1
-0.3599000000000001       0.35                     -0.004396151089584674    1
-0.2037                   0.35                     -0.0048924796676249604   1
-0.0475000000000001       0.35                     -0.005450856784102804    1
0.10870000000000002       0.35                     1.4175802118781116       1
0.2648999999999997        0.35                     1.4167087371434548       1
0.42110000000000003       0.35                     1.4152924900631367       1
0.5773000000000001        0.35                     1.4132594690711198       1
0.7334999999999998        0.35                     1.410891156728475        1
0.8896999999999999        0.35                     1.4074962672757696       1
1.0459                    0.35                     1.4027466139620683       1
1.2020999999999995        0.35                     1.3991152450302877       1
1.3582999999999996        0.35                     1.3938251140982878       1
1.5144999999999997        0.35                     1.3879079017567497       1
1.6706999999999994        0.35                     1.3812323985293138       1
1.8268999999999995        0.35                     1.3735728346738822       1
1.9831                    0.35                     1.3656424607254745       1
2.1393000000000004        0.35                     1.3554479344561772       1
2.2955000000000005        0.35                     1.3439139385305454       1
2.4516999999999993        0.35                     1.3301386974101101       1
2.607899999999999         0.35                     1.312755336533466        1
2.7640999999999996        0.35                     1.2956913691384626       1
2.9203                    0.35                     1.2722178097433172       1
3.0765                    0.35                     1.2423583094958888       1
3.2327000000000004        0.35                     1.20029230754096         1
3.388899999999999         0.35                     1.1360728340505744       1
3.5450999999999997        0.35                     1.0337522141450446       1
3.7012999999999994        0.35                     0.8522327329889618       1
3.8575                    0.35                     0.5629578409391023       1
4.0137                    0.35                     0.20334317058402895      1
4.1699                    0.35                     -0.569921938934614       1
4.3261                    0.35                     -0.17645428624696535     1
4.4822999999999995        0.35                     0.8271346989126015       1
4.638499999999999         0.35                     2.518572915921265        1
4.7947                    0.35                     4.119495618864025        1
4.950900000000001         0.35                     3.999001455353286        1
5.1071                    0.35                     3.852268830190141        1
5.263300000000001         0.35                     3.9599740903047977       1
5.419499999999999         0.35                     3.8261241417283376       1
5.575699999999999         0.35                     3.8238313166742603       1
5.7318999999999996        0.35                     3.6612009257355522       1
5.8881                    0.35                     3.6983169889827905       1
6.0443                    0.35                     3.936073854660154        1
6.2005                    0.35                     3.7218511908116128       1
6.3567                    0.35                     3.8994466916056876       1
6.5129                    0.35                     3.7521448464309186       1
6.6691                    0.35                     3.798281784350157        1
6.825299999999999         0.35                     3.801369985788634        1
6.981499999999999         0.35                     3.519694775243684        1
7.137699999999999         0.35                     3.811595058941935        1
7.293899999999999         0.35                     3.7840181409213365       1
7.4501                    0.35                     3.768147878403262        1
7.606299999999999         0.35                     3.7910835854047455       1
7.762499999999999         0.35                     3.695429784301944        1
7.918699999999999         0.35                     3.786243882289132        1
8.0749                    0.35                     3.830222893428204        1
8.2311                    0.35                     3.6876598579317634       1
8.3873                    0.35                     3.6913507670200096       1
8.5435                    0.35                     3.707565931704317        1
8.6997                    0.35                     3.887109483472914        1
8.8559                    0.35                     3.8498686738773276       1
9.012099999999998         0.35                     3.8851509962684188       1
9.168299999999999         0.35                     3.9129948767267058       1
9.324499999999999         0.35                     3.7703993515682086       1
9.4807                    0.35                     3.9310917630694147       1
9.636899999999999         0.35                     3.82623834346563         1
9.793099999999999         0.35                     3.874587714699704        1
9.9493                    0.35                     3.7381133155490236       1
10.105500000000001        0.35                     3.857604975232193        1
10.2617                   0.35                     3.8029874051786807       1
10.4179                   0.35                     3.784029331602924        1