% Model:              sc_magnet.mph
% Version:            COMSOL 6.2.0.415
% Date:               Feb 3 2025, 12:36
% Dimension:          2
% Nodes:              3000
% Expressions:        2
% Description:        Point
% cpl7x                   cpl7y                    Magnetic flux density, x-component Radius
-1.9450000000000005       0.045000000000000005     5.389165718664296E-4     1
-1.8350000000000004       0.045000000000000005     5.389165718664296E-4     1
-1.7250000000000003       0.045000000000000005     7.919850634064696E-4     1
-1.6150000000000002       0.045000000000000005     3.909782041143263E-4     1
-1.5050000000000003       0.045000000000000005     8.401139973220288E-4     1
-1.3950000000000005       0.045000000000000005     8.401139973220288E-4     1
-1.2850000000000006       0.045000000000000005     8.401139973220288E-4     1
-1.1750000000000007       0.045000000000000005     0.0010855133173029111    1
-1.0650000000000004       0.045000000000000005     0.002416874490522483     1
-0.9550000000000005       0.045000000000000005     0.002416874490522483     1
-0.8450000000000005       0.045000000000000005     0.002416874490522483     1
-0.7350000000000003       0.045000000000000005     0.010281686144201913     1
-0.6250000000000004       0.045000000000000005     0.012994283375635187     1
-0.5150000000000003       0.045000000000000005     0.012994283375635058     1
-0.40500000000000047      0.045000000000000005     0.01299428337563513      1
-0.2950000000000004       0.045000000000000005     0.08587592321916304      1
-0.18500000000000028      0.045000000000000005     0.04275286575909654      1
-0.0750000000000004       0.045000000000000005     0.056824215614735385     1
0.0349999999999997        0.045000000000000005     0.23032170299593194      1
0.1449999999999998        0.045000000000000005     0.20911595912250291      1
0.25499999999999945       0.045000000000000005     0.2213794815811756       1
0.36499999999999955       0.045000000000000005     0.21982563295818736      1
0.4749999999999994        0.045000000000000005     0.23287526042221396      1
0.5849999999999993        0.045000000000000005     0.23705782406497278      1
0.6949999999999996        0.045000000000000005     0.23764130093625724      1
0.8049999999999997        0.045000000000000005     0.2412275835976221       1
0.915                     0.045000000000000005     0.24354223670411557      1
1.025                     0.045000000000000005     0.24484096389702537      1
1.1349999999999996        0.045000000000000005     0.24028043440855984      1
1.2449999999999994        0.045000000000000005     0.23996612073861567      1
1.3549999999999998        0.045000000000000005     0.23225353576718022      1
1.4649999999999996        0.045000000000000005     0.24824888176413507      1
1.575                     0.045000000000000005     0.2433175694997427       1
1.6849999999999998        0.045000000000000005     0.24948725486187495      1
1.7949999999999993        0.045000000000000005     0.23402183114410569      1
1.9049999999999996        0.045000000000000005     0.24772454137726552      1
2.0149999999999997        0.045000000000000005     0.25833502094776795      1
2.125                     0.045000000000000005     0.24661967156761277      1
2.2349999999999994        0.045000000000000005     0.23833881582873928      1
2.3449999999999998        0.045000000000000005     0.24539774101743206      1
2.455                     0.045000000000000005     0.24808935569183382      1
2.5649999999999995        0.045000000000000005     0.23162607800192214      1
2.675                     0.045000000000000005     0.24221879538052082      1
2.785                     0.045000000000000005     0.24238869719200695      1
2.8949999999999996        0.045000000000000005     0.24679867820704882      1
3.005                     0.045000000000000005     0.24656357731655382      1
3.115                     0.045000000000000005     0.24841452857825447      1
3.224999999999999         0.045000000000000005     0.24254908565335218      1
3.335                     0.045000000000000005     0.24831944904893072      1
3.445                     0.045000000000000005     0.22675976201212578      1
3.5549999999999997        0.045000000000000005     0.24191782685578023      1
3.6649999999999996        0.045000000000000005     0.24668392051107801      1
3.7750000000000004        0.045000000000000005     0.24707674210010122      1
3.8850000000000002        0.045000000000000005     0.24122106981016733      1
3.995                     0.045000000000000005     0.23493548808485776      1
4.105                     0.045000000000000005     0.24694972521987912      1
4.214999999999999         0.045000000000000005     0.2408006988665079       1
4.324999999999999         0.045000000000000005     0.24900464169896774      1
4.435                     0.045000000000000005     0.2471215790227977       1
4.544999999999999         0.045000000000000005     0.24640557688554288      1
4.655                     0.045000000000000005     0.2463549488594966       1
4.765                     0.045000000000000005     0.2463549488594966       1
4.875                     0.045000000000000005     0.234986554321587        1
4.984999999999999         0.045000000000000005     0.24426254442861373      1
5.095                     0.045000000000000005     0.22328269300810033      1
5.205                     0.045000000000000005     0.2245360938384645       1
5.315                     0.045000000000000005     0.20817072843916912      1
5.425                     0.045000000000000005     0.24897495391838786      1
5.535000000000001         0.045000000000000005     0.24457862851735168      1
5.645                     0.045000000000000005     0.242484695600099        1
5.755                     0.045000000000000005     0.24173658688224942      1
5.864999999999999         0.045000000000000005     0.24185458061545817      1
5.975                     0.045000000000000005     0.24909551259379814      1
6.085                     0.045000000000000005     0.24570604198309365      1
6.195                     0.045000000000000005     0.24065720278489125      1
6.305                     0.045000000000000005     0.2357848256918902       1
6.415                     0.045000000000000005     0.23040860000216457      1
6.525                     0.045000000000000005     0.23189435087657184      1
6.635000000000001         0.045000000000000005     0.22185810109268703      1
6.745                     0.045000000000000005     0.19916023259694304      1
6.855                     0.045000000000000005     0.19805333305175754      1
6.964999999999999         0.045000000000000005     0.20545086599233287      1
7.074999999999999         0.045000000000000005     0.05474363138052607      1
7.185                     0.045000000000000005     0.03921889896123654      1
7.294999999999999         0.045000000000000005     0.03921889896123654      1
7.405                     0.045000000000000005     0.04262808993468603      1
7.515                     0.045000000000000005     0.00953731289205445      1
7.625                     0.045000000000000005     0.009537312892054506     1
7.734999999999999         0.045000000000000005     0.006035826997256577     1
7.845                     0.045000000000000005     0.0025634977762885106    1
7.954999999999999         0.045000000000000005     0.0025634977762885106    1
8.065                     0.045000000000000005     0.0025634977762885106    1
8.175                     0.045000000000000005     -0.004252482989084566    1
8.285                     0.045000000000000005     0.006926619311858048     1
8.395                     0.045000000000000005     2.6724131524853006E-4    1
8.504999999999999         0.045000000000000005     5.30427185758367E-4      1
8.615                     0.045000000000000005     0.0010376443650342085    1
8.725                     0.045000000000000005     6.002058350539421E-4     1
8.835                     0.045000000000000005     4.205214188704211E-4     1
8.945                     0.045000000000000005     4.205214188704211E-4     1
-1.9450000000000005       0.135                    0.0016167497155992888    1
-1.8350000000000004       0.135                    0.0016167497155992888    1
-1.7250000000000003       0.135                    0.0017737673693220268    1
-1.6150000000000002       0.135                    0.0011729346123429685    1
-1.5050000000000003       0.135                    0.0025203419919660325    1
-1.3950000000000005       0.135                    0.0025203419919660325    1
-1.2850000000000006       0.135                    0.005710732914687211     1
-1.1750000000000007       0.135                    0.0032565399519087386    1
-1.0650000000000004       0.135                    0.007250623471567297     1
-0.9550000000000005       0.135                    0.009073860191216282     1
-0.8450000000000005       0.135                    0.009073860191216282     1
-0.7350000000000003       0.135                    0.021860173694648932     1
-0.6250000000000004       0.135                    0.027994223229846016     1
-0.5150000000000003       0.135                    0.03898285012690553      1
-0.40500000000000047      0.135                    0.06380553273928768      1
-0.2950000000000004       0.135                    0.10284371509954582      1
-0.18500000000000028      0.135                    0.14030088054810896      1
-0.0750000000000004       0.135                    0.18518648818863337      1
0.0349999999999997        0.135                    0.610676122097626        1
0.1449999999999998        0.135                    0.6406915890352716       1
0.25499999999999945       0.135                    0.6811892578873735       1
0.36499999999999955       0.135                    0.6882651190143245       1
0.4749999999999994        0.135                    0.7291814220449697       1
0.5849999999999993        0.135                    0.7283976805290613       1
0.6949999999999996        0.135                    0.7645886983003531       1
0.8049999999999997        0.135                    0.748191233758174        1
0.915                     0.135                    0.7588188472982758       1
1.025                     0.135                    0.7709781239625957       1
1.1349999999999996        0.135                    0.7565384209796018       1
1.2449999999999994        0.135                    0.763993609390897        1
1.3549999999999998        0.135                    0.755301697725228        1
1.4649999999999996        0.135                    0.7812499997107666       1
1.575                     0.135                    0.7981694684326284       1
1.6849999999999998        0.135                    0.7484617645856249       1
1.7949999999999993        0.135                    0.7551008541090745       1
1.9049999999999996        0.135                    0.7770657590530448       1
2.0149999999999997        0.135                    0.7718836662602828       1
2.125                     0.135                    0.7631749692472456       1
2.2349999999999994        0.135                    0.7521619010334697       1
2.3449999999999998        0.135                    0.7560485537274353       1
2.455                     0.135                    0.7729398188254173       1
2.5649999999999995        0.135                    0.7747789119734119       1
2.675                     0.135                    0.7574761943166862       1
2.785                     0.135                    0.7731843558586942       1
2.8949999999999996        0.135                    0.7747357375553392       1
3.005                     0.135                    0.7705534656274384       1
3.115                     0.135                    0.764960300380857        1
3.224999999999999         0.135                    0.7437570614929735       1
3.335                     0.135                    0.7486321158136038       1
3.445                     0.135                    0.7815057207234135       1
3.5549999999999997        0.135                    0.7579225396843432       1
3.6649999999999996        0.135                    0.7635182797190865       1
3.7750000000000004        0.135                    0.7729717291427278       1
3.8850000000000002        0.135                    0.7618582132805265       1
3.995                     0.135                    0.7562630333372018       1
4.105                     0.135                    0.7581682043166355       1
4.214999999999999         0.135                    0.770006216067754        1
4.324999999999999         0.135                    0.7684860983468829       1
4.435                     0.135                    0.7476464817804076       1
4.544999999999999         0.135                    0.7459609349059543       1
4.655                     0.135                    0.7582642665453683       1
4.765                     0.135                    0.7531860478816501       1
4.875                     0.135                    0.8041804909082431       1
4.984999999999999         0.135                    0.78492391297478         1
5.095                     0.135                    0.7574755404339086       1
5.205                     0.135                    0.7707972377663026       1
5.315                     0.135                    0.7655859908502267       1
5.425                     0.135                    0.7502847624708266       1
5.535000000000001         0.135                    0.7599519476133243       1
5.645                     0.135                    0.7505521712755665       1
5.755                     0.135                    0.7488439637709374       1
5.864999999999999         0.135                    0.7667905082682624       1
5.975                     0.135                    0.7478209272565932       1
6.085                     0.135                    0.7613044087988796       1
6.195                     0.135                    0.741746618897462        1
6.305                     0.135                    0.7371112768142711       1
6.415                     0.135                    0.7092559904457238       1
6.525                     0.135                    0.6998942730181741       1
6.635000000000001         0.135                    0.692775822602226        1
6.745                     0.135                    0.6399911554507689       1
6.855                     0.135                    0.5931355303700736       1
6.964999999999999         0.135                    0.6524765538027781       1
7.074999999999999         0.135                    0.16187977269826082      1
7.185                     0.135                    0.1487597917648653       1
7.294999999999999         0.135                    0.08417961465814017      1
7.405                     0.135                    0.05172048783845984      1
7.515                     0.135                    0.041742158661303375     1
7.625                     0.135                    0.031684426715212405     1
7.734999999999999         0.135                    0.015164587136986984     1
7.845                     0.135                    0.009572814380900185     1
7.954999999999999         0.135                    0.007690493328865539     1
8.065                     0.135                    0.007690493328865539     1
8.175                     0.135                    0.0031194561112870556    1
8.285                     0.135                    0.005571235068255964     1
8.395                     0.135                    0.001274416888470159     1
8.504999999999999         0.135                    0.002191801363341961     1
8.615                     0.135                    0.003109185838213749     1
8.725                     0.135                    8.141091146426499E-4     1
8.835                     0.135                    0.0012615642566112598    1
8.945                     0.135                    0.0012615642566112598    1
-1.9450000000000005       0.225                    0.002694582859332162     1
-1.8350000000000004       0.225                    0.0028914304821383782    1
-1.7250000000000003       0.225                    0.002755549675237487     1
-1.6150000000000002       0.225                    0.001954891020571614     1
-1.5050000000000003       0.225                    0.004200569986609962     1
-1.3950000000000005       0.225                    0.004200569986609962     1
-1.2850000000000006       0.225                    0.007449212346494621     1
-1.1750000000000007       0.225                    0.009622045964316435     1
-1.0650000000000004       0.225                    0.015123100318693683     1
-0.9550000000000005       0.225                    0.015123100318693683     1
-0.8450000000000005       0.225                    0.013743929028294799     1
-0.7350000000000003       0.225                    0.033438661245094425     1
-0.6250000000000004       0.225                    0.053133393461895884     1
-0.5150000000000003       0.225                    0.051942168786156984     1
-0.40500000000000047      0.225                    0.10457536218625574      1
-0.2950000000000004       0.225                    0.173186500916539        1
-0.18500000000000028      0.225                    0.20664477904450607      1
-0.0750000000000004       0.225                    0.2983511887809932       1
0.0349999999999997        0.225                    1.2292977619624388       1
0.1449999999999998        0.225                    1.2077400001253356       1
0.25499999999999945       0.225                    1.1764404793855432       1
0.36499999999999955       0.225                    1.2242329651196178       1
0.4749999999999994        0.225                    1.2570396719399497       1
0.5849999999999993        0.225                    1.2821416688549676       1
0.6949999999999996        0.225                    1.3236846812783587       1
0.8049999999999997        0.225                    1.293759146850535        1
0.915                     0.225                    1.3148100654979529       1
1.025                     0.225                    1.3298687579400497       1
1.1349999999999996        0.225                    1.3449300809217424       1
1.2449999999999994        0.225                    1.322393188792133        1
1.3549999999999998        0.225                    1.323552337904292        1
1.4649999999999996        0.225                    1.3283757953904214       1
1.575                     0.225                    1.3693657417702845       1
1.6849999999999998        0.225                    1.3068337266586214       1
1.7949999999999993        0.225                    1.3348153568847472       1
1.9049999999999996        0.225                    1.321417569592664        1
2.0149999999999997        0.225                    1.3214995135393597       1
2.125                     0.225                    1.3060982891132378       1
2.2349999999999994        0.225                    1.288201661615897        1
2.3449999999999998        0.225                    1.3114905222188789       1
2.455                     0.225                    1.3543618378139044       1
2.5649999999999995        0.225                    1.3179317459449047       1
2.675                     0.225                    1.3403865430417083       1
2.785                     0.225                    1.2860689194485169       1
2.8949999999999996        0.225                    1.317130252494611        1
3.005                     0.225                    1.2964071019149594       1
3.115                     0.225                    1.3269998140709385       1
3.224999999999999         0.225                    1.3250247058699585       1
3.335                     0.225                    1.340771443831251        1
3.445                     0.225                    1.3343157969414992       1
3.5549999999999997        0.225                    1.3014363247371543       1
3.6649999999999996        0.225                    1.3574118220869054       1
3.7750000000000004        0.225                    1.3516859645790875       1
3.8850000000000002        0.225                    1.3448368261571773       1
3.995                     0.225                    1.3314568426742541       1
4.105                     0.225                    1.2814624834330992       1
4.214999999999999         0.225                    1.3473756950100464       1
4.324999999999999         0.225                    1.3603958189885335       1
4.435                     0.225                    1.3357311073254698       1
4.544999999999999         0.225                    1.3270965116806142       1
4.655                     0.225                    1.3041217343509315       1
4.765                     0.225                    1.3055289233958067       1
4.875                     0.225                    1.3473062862681022       1
4.984999999999999         0.225                    1.333543980586736        1
5.095                     0.225                    1.354134667765438        1
5.205                     0.225                    1.317058381694146        1
5.315                     0.225                    1.3141718083739917       1
5.425                     0.225                    1.2870449484013982       1
5.535000000000001         0.225                    1.303664867641448        1
5.645                     0.225                    1.3124737786804443       1
5.755                     0.225                    1.3195851426863832       1
5.864999999999999         0.225                    1.3622702177094514       1
5.975                     0.225                    1.3088461401420588       1
6.085                     0.225                    1.335846382524985        1
6.195                     0.225                    1.312312559441759        1
6.305                     0.225                    1.2982113920998875       1
6.415                     0.225                    1.2693755551983434       1
6.525                     0.225                    1.2312373332736284       1
6.635000000000001         0.225                    1.2030175745324119       1
6.745                     0.225                    1.1477278818313539       1
6.855                     0.225                    1.060795796186314        1
6.964999999999999         0.225                    1.0698015850614195       1
7.074999999999999         0.225                    0.297831917732978        1
7.185                     0.225                    0.20922105104920163      1
7.294999999999999         0.225                    0.13064188155073958      1
7.405                     0.225                    0.09605298272256113      1
7.515                     0.225                    0.048746589925785955     1
7.625                     0.225                    0.038684951891862385     1
7.734999999999999         0.225                    0.026478402833039816     1
7.845                     0.225                    0.015954690634833568     1
7.954999999999999         0.225                    0.015954690634833568     1
8.065                     0.225                    0.00990751909303178      1
8.175                     0.225                    0.008561624871819107     1
8.285                     0.225                    0.004623379567761904     1
8.395                     0.225                    0.0029357910660540165    1
8.504999999999999         0.225                    0.003853175540925763     1
8.615                     0.225                    0.003459676066740913     1
8.725                     0.225                    0.002611477292547071     1
8.835                     0.225                    4.7564267025024254E-4    1
8.945                     0.225                    0.002102607094352102     1
-1.9450000000000005       0.315                    0.003772416003065021     1
-1.8350000000000004       0.315                    0.003873212788053982     1
-1.7250000000000003       0.315                    0.0037373319811531136    1
-1.6150000000000002       0.315                    0.0036014511742524236    1
-1.5050000000000003       0.315                    0.005880797981254043     1
-1.3950000000000005       0.315                    0.007014858160481141     1
-1.2850000000000006       0.315                    0.00918769177830242      1
-1.1750000000000007       0.315                    0.010768946293178512     1
-1.0650000000000004       0.315                    0.018312580672313086     1
-0.9550000000000005       0.315                    0.02117234044617089      1
-0.8450000000000005       0.315                    0.02532241657874046      1
-0.7350000000000003       0.315                    0.04356846806225023      1
-0.6250000000000004       0.315                    0.05915863695103868      1
-0.5150000000000003       0.315                    0.0845617296163415       1
-0.40500000000000047      0.315                    0.13607349402513855      1
-0.2950000000000004       0.315                    0.18065340672498154      1
-0.18500000000000028      0.315                    0.32681766084079356      1
-0.0750000000000004       0.315                    0.4346282693951764       1
0.0349999999999997        0.315                    1.844827402382701        1
0.1449999999999998        0.315                    1.7612562887431693       1
0.25499999999999945       0.315                    1.8509526155256757       1
0.36499999999999955       0.315                    1.8928153051365832       1
0.4749999999999994        0.315                    1.9046111209139305       1
0.5849999999999993        0.315                    1.944446437090951        1
0.6949999999999996        0.315                    1.963431973051644        1
0.8049999999999997        0.315                    1.9499278852398838       1
0.915                     0.315                    1.977195631262517        1
1.025                     0.315                    2.0287638394555554       1
1.1349999999999996        0.315                    2.0678026860661376       1
1.2449999999999994        0.315                    2.035929173228051        1
1.3549999999999998        0.315                    2.044779988677849        1
1.4649999999999996        0.315                    2.028719152446566        1
1.575                     0.315                    2.0019998794125407       1
1.6849999999999998        0.315                    1.980034380766961        1
1.7949999999999993        0.315                    2.004838047975688        1
1.9049999999999996        0.315                    1.980732584317332        1
2.0149999999999997        0.315                    1.9854204471207875       1
2.125                     0.315                    2.025045788404136        1
2.2349999999999994        0.315                    1.977392799859576        1
2.3449999999999998        0.315                    1.9988483706191538       1
2.455                     0.315                    1.9902346699816054       1
2.5649999999999995        0.315                    2.1056737273318102       1
2.675                     0.315                    1.9746105819067          1
2.785                     0.315                    1.9831261505503281       1
2.8949999999999996        0.315                    2.0079631827872344       1
3.005                     0.315                    2.0229331763504432       1
3.115                     0.315                    2.0101717038866735       1
3.224999999999999         0.315                    2.0463232087029404       1
3.335                     0.315                    2.034877277440995        1
3.445                     0.315                    1.949238922356193        1
3.5549999999999997        0.315                    1.9656123616954897       1
3.6649999999999996        0.315                    2.0204473862686134       1
3.7750000000000004        0.315                    1.98786276161821         1
3.8850000000000002        0.315                    2.008158457090989        1
3.995                     0.315                    2.0007718988490337       1
4.105                     0.315                    1.9762722518002742       1
4.214999999999999         0.315                    1.9651370427159467       1
4.324999999999999         0.315                    1.9669833808844492       1
4.435                     0.315                    1.9924510637356037       1
4.544999999999999         0.315                    2.0025181231687053       1
4.655                     0.315                    1.957635017094404        1
4.765                     0.315                    1.9866023174378622       1
4.875                     0.315                    1.9825674024441182       1
4.984999999999999         0.315                    1.9505522010035579       1
5.095                     0.315                    2.0209255714461776       1
5.205                     0.315                    2.1198859009510613       1
5.315                     0.315                    1.9785124151299294       1
5.425                     0.315                    1.9654035595825894       1
5.535000000000001         0.315                    1.9592302686001568       1
5.645                     0.315                    1.9759912530321748       1
5.755                     0.315                    1.967001336169476        1
5.864999999999999         0.315                    2.00735184731636         1
5.975                     0.315                    1.9513170573279388       1
6.085                     0.315                    1.9708949002598604       1
6.195                     0.315                    1.9788766857914801       1
6.305                     0.315                    1.9497251282198524       1
6.415                     0.315                    1.8929896166959792       1
6.525                     0.315                    1.8867305366495621       1
6.635000000000001         0.315                    1.8729261714199232       1
6.745                     0.315                    1.7480468205319835       1