% Model:              sc_magnet.mph
% Version:            COMSOL 6.2.0.415
% Date:               Feb 3 2025, 12:46
% Dimension:          2
% Nodes:              3000
% Expressions:        2
% Description:        Point
% cpl8x                   cpl8y                    Magnetic flux density, z-component Radius
-1.9450000000000005       0.045000000000000005     -0.00438870246892966     1
-1.8350000000000004       0.045000000000000005     -0.013166107406789002    1
-1.7250000000000003       0.045000000000000005     -0.02194351234464835     1
-1.6150000000000002       0.045000000000000005     -0.031882076917701126    1
-1.5050000000000003       0.045000000000000005     -0.044067421200568745    1
-1.3950000000000005       0.045000000000000005     -0.05900863136198509     1
-1.2850000000000006       0.045000000000000005     -0.0694557776760045      1
-1.1750000000000007       0.045000000000000005     -0.08755198485724465     1
-1.0650000000000004       0.045000000000000005     -0.10588929548318389     1
-0.9550000000000005       0.045000000000000005     -0.1294616732890107      1
-0.8450000000000005       0.045000000000000005     -0.15505012119585637     1
-0.7350000000000003       0.045000000000000005     -0.18556439247970008     1
-0.6250000000000004       0.045000000000000005     -0.2202241952684314      1
-0.5150000000000003       0.045000000000000005     -0.26604266041108876     1
-0.40500000000000047      0.045000000000000005     -0.32430574454747685     1
-0.2950000000000004       0.045000000000000005     -0.37404216115297706     1
-0.18500000000000028      0.045000000000000005     -0.44344337976900894     1
-0.0750000000000004       0.045000000000000005     -0.46770307811883205     1
0.0349999999999997        0.045000000000000005     -0.3501141163681068      1
0.1449999999999998        0.045000000000000005     -0.2197284431071559      1
0.25499999999999945       0.045000000000000005     -0.1176115807793141      1
0.36499999999999955       0.045000000000000005     -0.13343699436740145     1
0.4749999999999994        0.045000000000000005     -0.12155800908224891     1
0.5849999999999993        0.045000000000000005     -0.11015626503855619     1
0.6949999999999996        0.045000000000000005     -0.09875452099486297     1
0.8049999999999997        0.045000000000000005     -0.08250398800177977     1
0.915                     0.045000000000000005     -0.06368689528708135     1
1.025                     0.045000000000000005     -0.05016721213906761     1
1.1349999999999996        0.045000000000000005     -0.0366475289910535      1
1.2449999999999994        0.045000000000000005     -0.05366451977894604     1
1.3549999999999998        0.045000000000000005     -0.0239377995654071      1
1.4649999999999996        0.045000000000000005     -0.022139711085143926    1
1.575                     0.045000000000000005     -0.020341622604880816    1
1.6849999999999998        0.045000000000000005     -0.01854353412461779     1
1.7949999999999993        0.045000000000000005     0.0036348849669692873    1
1.9049999999999996        0.045000000000000005     -0.0150562744988402      1
2.0149999999999997        0.045000000000000005     -0.015140441224470114    1
2.125                     0.045000000000000005     -0.015224607950099556    1
2.2349999999999994        0.045000000000000005     0.02569953647643279      1
2.3449999999999998        0.045000000000000005     0.0037234842414810565    1
2.455                     0.045000000000000005     0.0026723651549345195    1
2.5649999999999995        0.045000000000000005     0.0016212460683879826    1
2.675                     0.045000000000000005     -0.004961683027391535    1
2.785                     0.045000000000000005     0.0021374157619503814    1
2.8949999999999996        0.045000000000000005     0.002056522632231661     1
3.005                     0.045000000000000005     0.0019756295025128434    1
3.115                     0.045000000000000005     0.001894736372794359     1
3.224999999999999         0.045000000000000005     0.018359385614137396     1
3.335                     0.045000000000000005     0.016712470238128406     1
3.445                     0.045000000000000005     0.015065554862119409     1
3.5549999999999997        0.045000000000000005     2.134526442197827        1
3.6649999999999996        0.045000000000000005     1.8259023618528156       1
3.7750000000000004        0.045000000000000005     1.9132931834925466       1
3.8850000000000002        0.045000000000000005     2.0006840051322774       1
3.995                     0.045000000000000005     2.088074826772009        1
4.105                     0.045000000000000005     1.8874853118625334       1
4.214999999999999         0.045000000000000005     1.9790016749462649       1
4.324999999999999         0.045000000000000005     1.9701373743765773       1
4.435                     0.045000000000000005     1.9612730738068893       1
4.544999999999999         0.045000000000000005     1.6968316786606106       1
4.655                     0.045000000000000005     1.8761571268098878       1
4.765                     0.045000000000000005     1.8946886600690445       1
4.875                     0.045000000000000005     1.9132201933282011       1
4.984999999999999         0.045000000000000005     1.9317517265873583       1
5.095                     0.045000000000000005     1.7123246259539058       1
5.205                     0.045000000000000005     1.6585828251816084       1
5.315                     0.045000000000000005     1.6899974906131252       1
5.425                     0.045000000000000005     1.7214121560446403       1
5.535000000000001         0.045000000000000005     1.6900320755867746       1
5.645                     0.045000000000000005     1.7807655800245228       1
5.755                     0.045000000000000005     1.8053589888033288       1
5.864999999999999         0.045000000000000005     1.8299523975821352       1
5.975                     0.045000000000000005     1.9257386399933534       1
6.085                     0.045000000000000005     1.8977505665906758       1
6.195                     0.045000000000000005     1.896620314084254        1
6.305                     0.045000000000000005     1.8969692768668502       1
6.415                     0.045000000000000005     1.8973182396494472       1
6.525                     0.045000000000000005     1.8537597787568234       1
6.635000000000001         0.045000000000000005     1.8534284156725929       1
6.745                     0.045000000000000005     1.7173649717988524       1
6.855                     0.045000000000000005     1.5813015279251124       1
6.964999999999999         0.045000000000000005     0.6998551997549791       1
7.074999999999999         0.045000000000000005     0.5026082485058176       1
7.185                     0.045000000000000005     0.42102420518821715      1
7.294999999999999         0.045000000000000005     0.3423347705027421       1
7.405                     0.045000000000000005     0.2900161381894851       1
7.515                     0.045000000000000005     0.2384522391810413       1
7.625                     0.045000000000000005     0.20300447962892834      1
7.734999999999999         0.045000000000000005     0.1742089123105952       1
7.845                     0.045000000000000005     0.14535260037156128      1
7.954999999999999         0.045000000000000005     0.11649628843252668      1
8.065                     0.045000000000000005     0.09861637560098163      1
8.175                     0.045000000000000005     0.07969371580573328      1
8.285                     0.045000000000000005     0.066649224045876        1
8.395                     0.045000000000000005     0.05369181393595469      1
8.504999999999999         0.045000000000000005     0.03975393500542154      1
8.615                     0.045000000000000005     0.028881303382722358     1
8.725                     0.045000000000000005     0.01978447816124501      1
8.835                     0.045000000000000005     0.011870686896746932     1
8.945                     0.045000000000000005     0.003956895632248974     1
-1.9450000000000005       0.135                    -0.00438870246892966     1
-1.8350000000000004       0.135                    -0.013166107406789002    1
-1.7250000000000003       0.135                    -0.02194351234464835     1
-1.6150000000000002       0.135                    -0.031579433250554616    1
-1.5050000000000003       0.135                    -0.039459603085953684    1
-1.3950000000000005       0.135                    -0.054044773732455115    1
-1.2850000000000006       0.135                    -0.06862994437895611     1
-1.1750000000000007       0.135                    -0.08694089453726994     1
-1.0650000000000004       0.135                    -0.10527820516320949     1
-0.9550000000000005       0.135                    -0.1252277042655757      1
-0.8450000000000005       0.135                    -0.1513468866036193      1
-0.7350000000000003       0.135                    -0.185865732109453       1
-0.6250000000000004       0.135                    -0.22188689505921566     1
-0.5150000000000003       0.135                    -0.2571927697776022      1
-0.40500000000000047      0.135                    -0.30786315229411554     1
-0.2950000000000004       0.135                    -0.34897655199497524     1
-0.18500000000000028      0.135                    -0.44364105869620785     1
-0.0750000000000004       0.135                    -0.4592677430796972      1
0.0349999999999997        0.135                    -0.3637681587270931      1
0.1449999999999998        0.135                    -0.18344783671483272     1
0.25499999999999945       0.135                    -0.162743336975817       1
0.36499999999999955       0.135                    -0.1388052848406801      1
0.4749999999999994        0.135                    -0.11525637158793231     1
0.5849999999999993        0.135                    -0.11008383380518424     1
0.6949999999999996        0.135                    -0.09868208976149108     1
0.8049999999999997        0.135                    -0.0768494598825587      1
0.915                     0.135                    -0.0608117977906808      1
1.025                     0.135                    -0.06037360489719841     1
1.1349999999999996        0.135                    -0.046303643348292095    1
1.2449999999999994        0.135                    -0.048120733117106504    1
1.3549999999999998        0.135                    -0.029361188093664108    1
1.4649999999999996        0.135                    -0.02384927766510228     1
1.575                     0.135                    -0.022051189184839115    1
1.6849999999999998        0.135                    -0.03249574728639418     1
1.7949999999999993        0.135                    -0.024375127038391037    1
1.9049999999999996        0.135                    -0.016884641805241612    1
2.0149999999999997        0.135                    -0.016968808530871238    1
2.125                     0.135                    -0.017052975256500902    1
2.2349999999999994        0.135                    0.012651301132519388     1
2.3449999999999998        0.135                    -0.006131887730037255    1
2.455                     0.135                    -0.007183006816583348    1
2.5649999999999995        0.135                    -0.008234125903129774    1
2.675                     0.135                    0.010924785966699324     1
2.785                     0.135                    0.011736492543228512     1
2.8949999999999996        0.135                    -0.0040919172011763165   1
3.005                     0.135                    -0.004172810330895033    1
3.115                     0.135                    0.026359131315721984     1
3.224999999999999         0.135                    0.011951462196806914     1
3.335                     0.135                    0.010304546820797844     1
3.445                     0.135                    0.00865763144478851      1
3.5549999999999997        0.135                    1.0085831534005922       1
3.6649999999999996        0.135                    1.0457024353171012       1
3.7750000000000004        0.135                    1.4681681343617268       1
3.8850000000000002        0.135                    1.5555589560014573       1
3.995                     0.135                    1.6429497776411874       1
4.105                     0.135                    1.4573871841454014       1
4.214999999999999         0.135                    1.3488556178272617       1
4.324999999999999         0.135                    1.53591627473874         1
4.435                     0.135                    1.5270519741690527       1
4.544999999999999         0.135                    1.3094096737100547       1
4.655                     0.135                    1.3791274509843303       1
4.765                     0.135                    1.4624897015406673       1
4.875                     0.135                    1.4810212347998237       1
4.984999999999999         0.135                    1.4461082220618997       1
5.095                     0.135                    1.4631467503346354       1
5.205                     0.135                    1.4168428405316722       1
5.315                     0.135                    1.4620965968339505       1
5.425                     0.135                    1.507350353136229        1
5.535000000000001         0.135                    1.40230503121232         1
5.645                     0.135                    1.4270546772759676       1
5.755                     0.135                    1.5073456736161777       1
5.864999999999999         0.135                    1.5319390823949839       1
5.975                     0.135                    1.6565919799239932       1
6.085                     0.135                    1.5954360219901378       1
6.195                     0.135                    1.5318910655092066       1
6.305                     0.135                    1.6162540299387964       1
6.415                     0.135                    1.6060782070043764       1
6.525                     0.135                    1.5815468996608897       1
6.635000000000001         0.135                    1.4789596967153025       1
6.745                     0.135                    1.4006569889400722       1
6.855                     0.135                    1.021525237798747        1
6.964999999999999         0.135                    0.7237780333937761       1
7.074999999999999         0.135                    0.513032195077741        1
7.185                     0.135                    0.40055451583342006      1
7.294999999999999         0.135                    0.32768927992649144      1
7.405                     0.135                    0.2781873647057287       1
7.515                     0.135                    0.23513550563853558      1
7.625                     0.135                    0.19516240711538613      1
7.734999999999999         0.135                    0.16630609517635153      1
7.845                     0.135                    0.13744978323731716      1
7.954999999999999         0.135                    0.11702476691264137      1
8.065                     0.135                    0.09509201769412992      1
8.175                     0.135                    0.07962312445696676      1
8.285                     0.135                    0.06515172953651437      1
8.395                     0.135                    0.052030719582291496     1
8.504999999999999         0.135                    0.038986279329698344     1
8.615                     0.135                    0.029059471392639813     1
8.725                     0.135                    0.01978447816124501      1
8.835                     0.135                    0.011870686896746932     1
8.945                     0.135                    0.003956895632248974     1
-1.9450000000000005       0.225                    -0.00438870246892966     1
-1.8350000000000004       0.225                    -0.013166107406789002    1
-1.7250000000000003       0.225                    -0.02235510034901272     1
-1.6150000000000002       0.225                    -0.03283205843857105     1
-1.5050000000000003       0.225                    -0.04235181675523788     1
-1.3950000000000005       0.225                    -0.05480323400737691     1
-1.2850000000000006       0.225                    -0.06725465125951581     1
-1.1750000000000007       0.225                    -0.08238928172840904     1
-1.0650000000000004       0.225                    -0.10466711484323463     1
-0.9550000000000005       0.225                    -0.12167147578973551     1
-0.8450000000000005       0.225                    -0.15150726895047417     1
-0.7350000000000003       0.225                    -0.1914426516580331      1
-0.6250000000000004       0.225                    -0.21901391219792632     1
-0.5150000000000003       0.225                    -0.24658517273782082     1
-0.40500000000000047      0.225                    -0.29142056004075084     1
-0.2950000000000004       0.225                    -0.34008742471681225     1
-0.18500000000000028      0.225                    -0.3807527452478159      1
-0.0750000000000004       0.225                    -0.4012753572478849      1
0.0349999999999997        0.225                    -0.3774222010860807      1
0.1449999999999998        0.225                    -0.18966600867854772     1
0.25499999999999945       0.225                    -0.14738016485890115     1
0.36499999999999955       0.225                    -0.13382103234279308     1
0.4749999999999994        0.225                    -0.11959806202510533     1
0.5849999999999993        0.225                    -0.11001140257181248     1
0.6949999999999996        0.225                    -0.08483399397949046     1
0.8049999999999997        0.225                    -0.09103057306535961     1
0.915                     0.225                    -0.07499291097348099     1
1.025                     0.225                    -0.038942766917637775    1
1.1349999999999996        0.225                    -0.04876957078104037     1
1.2449999999999994        0.225                    -0.047682886994700246    1
1.3549999999999998        0.225                    -0.03837795892038022     1
1.4649999999999996        0.225                    -0.025558844245060695    1
1.575                     0.225                    -0.023760755764797553    1
1.6849999999999998        0.225                    -0.022739728624174504    1
1.7949999999999993        0.225                    -0.024720360960125226    1
1.9049999999999996        0.225                    -0.018713009111642698    1
2.0149999999999997        0.225                    -0.018797175837272202    1
2.125                     0.225                    -0.004303882023252714    1
2.2349999999999994        0.225                    -3.969342113938623E-4    1
2.3449999999999998        0.225                    0.0035100136004655447    1
2.455                     0.225                    -0.017038378788101438    1
2.5649999999999995        0.225                    0.01257301208292197      1
2.675                     0.225                    0.008985760709906029     1
2.785                     0.225                    0.009797467286435258     1
2.8949999999999996        0.225                    -0.010240357034584646    1
3.005                     0.225                    0.014484393680692242     1
3.115                     0.225                    0.01622945538853776      1
3.224999999999999         0.225                    0.017974517096383202     1
3.335                     0.225                    0.0038966234034673655    1
3.445                     0.225                    0.0022497080274581673    1
3.5549999999999997        0.225                    0.745001879172353        1
3.6649999999999996        0.225                    0.7821211610888625       1
3.7750000000000004        0.225                    1.0230430852309065       1
3.8850000000000002        0.225                    1.1104339068706373       1
3.995                     0.225                    0.9774386572632681       1
4.105                     0.225                    1.0272890564282695       1
4.214999999999999         0.225                    1.0771394555932692       1
4.324999999999999         0.225                    1.1016951751009039       1
4.435                     0.225                    0.8888283319532413       1
4.544999999999999         0.225                    0.9298571002981083       1
4.655                     0.225                    0.9708858686429765       1
4.765                     0.225                    1.0302907430122896       1
4.875                     0.225                    1.0488222762714456       1
4.984999999999999         0.225                    1.0414845951155793       1
5.095                     0.225                    1.0501601835693166       1
5.205                     0.225                    1.0921829787959267       1
5.315                     0.225                    1.1082246119419015       1
5.425                     0.225                    1.1534783682441798       1
5.535000000000001         0.225                    1.1012426080440296       1
5.645                     0.225                    1.1031449099273702       1
5.755                     0.225                    1.1619545153677946       1
5.864999999999999         0.225                    1.348268127959621        1
5.975                     0.225                    1.1869719947649942       1
6.085                     0.225                    1.2397894757299543       1
6.195                     0.225                    1.2926069566949143       1
6.305                     0.225                    1.2663655305221777       1
6.415                     0.225                    1.3940294324378295       1
6.525                     0.225                    1.2376422765360635       1
6.635000000000001         0.225                    1.2190349184153284       1
6.745                     0.225                    0.9758277808745169       1
6.855                     0.225                    0.8277154333002696       1
6.964999999999999         0.225                    0.6824786285651522       1
7.074999999999999         0.225                    0.5266498423656489       1
7.185                     0.225                    0.38008482647862296      1
7.294999999999999         0.225                    0.31481629727958804      1
7.405                     0.225                    0.26354187412947905      1
7.515                     0.225                    0.23068546041340307      1
7.625                     0.225                    0.19704631847086493      1
7.734999999999999         0.225                    0.1584032780421084       1
7.845                     0.225                    0.13307893389240086      1
7.954999999999999         0.225                    0.11114618467388954      1
8.065                     0.225                    0.09145978434804275      1
8.175                     0.225                    0.07814632304160446      1
8.285                     0.225                    0.06314529561690496      1
8.395                     0.225                    0.05036962522862847      1
8.504999999999999         0.225                    0.03821862365397514      1
8.615                     0.225                    0.02862602613028631      1
8.725                     0.225                    0.020475162418975235     1
8.835                     0.225                    0.011870686896746932     1
8.945                     0.225                    0.003956895632248974     1
-1.9450000000000005       0.315                    -0.00438870246892966     1
-1.8350000000000004       0.315                    -0.013166107406789002    1
-1.7250000000000003       0.315                    -0.02263795533364925     1
-1.6150000000000002       0.315                    -0.03128966461097741     1
-1.5050000000000003       0.315                    -0.04088330970291115     1
-1.3950000000000005       0.315                    -0.053334726955050385    1
-1.2850000000000006       0.315                    -0.06578614420718933     1
-1.1750000000000007       0.315                    -0.07823756145932845     1
-1.0650000000000004       0.315                    -0.09068897871146757     1
-0.9550000000000005       0.315                    -0.1223933351491991      1
-0.8450000000000005       0.315                    -0.1434327710795592      1
-0.7350000000000003       0.315                    -0.17011323278590873     1
-0.6250000000000004       0.315                    -0.20812521737346024     1
-0.5150000000000003       0.315                    -0.24613720196101108     1
-0.40500000000000047      0.315                    -0.27497796778738653     1
-0.2950000000000004       0.315                    -0.3217956048894862      1
-0.18500000000000028      0.315                    -0.36246092542049113     1
-0.0750000000000004       0.315                    -0.3860249148382866      1
0.0349999999999997        0.315                    -0.31063786537928745     1
0.1449999999999998        0.315                    -0.1867101783556852      1
0.25499999999999945       0.315                    -0.15251300526192302     1
0.36499999999999955       0.315                    -0.13228107182717141     1
0.4749999999999994        0.315                    -0.11617835263012743     1
0.5849999999999993        0.315                    -0.11157880747142707     1
0.6949999999999996        0.315                    -0.10543260554985698     1
0.8049999999999997        0.315                    -0.09159160366017881     1
0.915                     0.315                    -0.07775060177050064     1
1.025                     0.315                    -0.03253387370668485     1
1.1349999999999996        0.315                    -0.04833172465863447     1
1.2449999999999994        0.315                    -0.047245040872293975    1
1.3549999999999998        0.315                    -0.04615835708595406     1
1.4649999999999996        0.315                    -0.02726841082501885     1
1.575                     0.315                    -0.02291511211559928     1
1.6849999999999998        0.315                    -0.023084962545908215    1
1.7949999999999993        0.315                    -0.02506559488185895     1
1.9049999999999996        0.315                    -0.02471827552951957     1
2.0149999999999997        0.315                    -0.020625543143673222    1
2.125                     0.315                    -0.017352117367165965    1
2.2349999999999994        0.315                    -0.013445169555307168    1
2.3449999999999998        0.315                    -0.009538221743447872    1
2.455                     0.315                    -0.02689375075961964     1
2.5649999999999995        0.315                    0.006235028876583382     1
2.675                     0.315                    0.007046735453112808     1
2.785                     0.315                    0.00785844202964206      1
2.8949999999999996        0.315                    0.022155066547295484     1
3.005                     0.315                    0.00444297117637979      1
3.115                     0.315                    0.006099779461353039     1
3.224999999999999         0.315                    0.007844841169198091     1
3.335                     0.315                    -0.0025113000138635064   1
3.445                     0.315                    0.02212997173665157      1
3.5549999999999997        0.315                    0.48142060494411565      1
3.6649999999999996        0.315                    0.5185398868606241       1
3.7750000000000004        0.315                    0.5556591687771333       1
3.8850000000000002        0.315                    0.6653088577398167       1
3.995                     0.315                    0.547340529546137        1
4.105                     0.315                    0.5971909287111377       1
4.214999999999999         0.315                    0.6470413278761376       1
4.324999999999999         0.315                    0.317054721112056        1
4.435                     0.315                    0.5092757585412936       1
4.544999999999999         0.315                    0.5503045268861606       1
4.655                     0.315                    0.591333295231028        1
4.765                     0.315                    0.5980917844839112       1
4.875                     0.315                    0.6166233177430677       1
4.984999999999999         0.315                    0.5951508215773882       1
5.095                     0.315                    0.6371736168039979       1
5.205                     0.315                    0.6791964120306078       1
5.315                     0.315                    0.7543526270498526       1
5.425                     0.315                    0.7053861393726921       1
5.535000000000001         0.315                    0.7298376148439172       1
5.645                     0.315                    0.7655346201391116       1
5.755                     0.315                    0.8012316254343055       1
5.864999999999999         0.315                    0.9256964773388965       1
5.975                     0.315                    0.9128347087752781       1
6.085                     0.315                    0.9282625450291841       1
6.195                     0.315                    0.9436903812830909       1
6.305                     0.315                    0.8460815103902143       1
6.415                     0.315                    0.7059671793471789       1
6.525                     0.315                    0.7710308119657667       1
6.635000000000001         0.315                    0.815646971510098        1
6.745                     0.315                    0.6947555170353303       1