% Model:              sc_magnet.mph
% Version:            COMSOL 6.2.0.415
% Date:               Feb 3 2025, 12:36
% Dimension:          2
% Nodes:              3000
% Expressions:        2
% Description:        Point
% cpl8x                   cpl8y                    Magnetic flux density, y-component Radius
-1.9450000000000005       0.045000000000000005     -0.07872743998448095     1
-1.8350000000000004       0.045000000000000005     -0.07985683362357608     1
-1.7250000000000003       0.045000000000000005     -0.08098121479669278     1
-1.6150000000000002       0.045000000000000005     -0.08361982414917361     1
-1.5050000000000003       0.045000000000000005     -0.0869927580318274      1
-1.3950000000000005       0.045000000000000005     -0.0929119930207169      1
-1.2850000000000006       0.045000000000000005     -0.09788648870825967     1
-1.1750000000000007       0.045000000000000005     -0.09848770031623336     1
-1.0650000000000004       0.045000000000000005     -0.10798325409429829     1
-0.9550000000000005       0.045000000000000005     -0.11268590066431537     1
-0.8450000000000005       0.045000000000000005     -0.12701168727107        1
-0.7350000000000003       0.045000000000000005     -0.1311881196478204      1
-0.6250000000000004       0.045000000000000005     -0.11532886816783039     1
-0.5150000000000003       0.045000000000000005     -0.09855806166109282     1
-0.40500000000000047      0.045000000000000005     -0.0623828700732979      1
-0.2950000000000004       0.045000000000000005     0.00994494489665243      1
-0.18500000000000028      0.045000000000000005     0.10184694608011924      1
-0.0750000000000004       0.045000000000000005     0.15528519104192195      1
0.0349999999999997        0.045000000000000005     2.203146716911913        1
0.1449999999999998        0.045000000000000005     2.1961148483566895       1
0.25499999999999945       0.045000000000000005     2.342410853841237        1
0.36499999999999955       0.045000000000000005     2.479348359852592        1
0.4749999999999994        0.045000000000000005     2.530693798764795        1
0.5849999999999993        0.045000000000000005     2.6278160666991446       1
0.6949999999999996        0.045000000000000005     2.7209509932386218       1
0.8049999999999997        0.045000000000000005     2.7105908361096147       1
0.915                     0.045000000000000005     2.732812356059616        1
1.025                     0.045000000000000005     2.8005744940305215       1
1.1349999999999996        0.045000000000000005     2.7741369798351183       1
1.2449999999999994        0.045000000000000005     2.792109804878447        1
1.3549999999999998        0.045000000000000005     2.7941200325216364       1
1.4649999999999996        0.045000000000000005     2.826984036232692        1
1.575                     0.045000000000000005     2.793083228137916        1
1.6849999999999998        0.045000000000000005     2.802862655480594        1
1.7949999999999993        0.045000000000000005     2.8378029508148503       1
1.9049999999999996        0.045000000000000005     2.8039039813752216       1
2.0149999999999997        0.045000000000000005     3.008677173327209        1
2.125                     0.045000000000000005     2.810548475887626        1
2.2349999999999994        0.045000000000000005     2.876402311826838        1
2.3449999999999998        0.045000000000000005     2.8044989125066273       1
2.455                     0.045000000000000005     2.790475218797745        1
2.5649999999999995        0.045000000000000005     2.8106983417858253       1
2.675                     0.045000000000000005     2.808640364423473        1
2.785                     0.045000000000000005     2.8065823870611215       1
2.8949999999999996        0.045000000000000005     2.813950754538353        1
3.005                     0.045000000000000005     2.821164427286022        1
3.115                     0.045000000000000005     2.841699748184346        1
3.224999999999999         0.045000000000000005     2.822475089920399        1
3.335                     0.045000000000000005     2.836501533944881        1
3.445                     0.045000000000000005     2.857697719140654        1
3.5549999999999997        0.045000000000000005     2.868307848792373        1
3.6649999999999996        0.045000000000000005     2.829101089533118        1
3.7750000000000004        0.045000000000000005     2.8342607966815803       1
3.8850000000000002        0.045000000000000005     2.86307266949253         1
3.995                     0.045000000000000005     2.8657181091719424       1
4.105                     0.045000000000000005     2.8308991760646847       1
4.214999999999999         0.045000000000000005     2.8644423852080894       1
4.324999999999999         0.045000000000000005     2.9630972096634007       1
4.435                     0.045000000000000005     2.871272859005267        1
4.544999999999999         0.045000000000000005     2.9028714832112987       1
4.655                     0.045000000000000005     2.8726879458408106       1
4.765                     0.045000000000000005     2.860788765463419        1
4.875                     0.045000000000000005     2.8944560510578574       1
4.984999999999999         0.045000000000000005     2.9382588146570128       1
5.095                     0.045000000000000005     2.9138233171857113       1
5.205                     0.045000000000000005     2.9206980421463533       1
5.315                     0.045000000000000005     2.9882842304831314       1
5.425                     0.045000000000000005     2.9348552795820027       1
5.535000000000001         0.045000000000000005     2.934059859809447        1
5.645                     0.045000000000000005     2.9601628834953857       1
5.755                     0.045000000000000005     2.980741690124622        1
5.864999999999999         0.045000000000000005     2.9562238586139546       1
5.975                     0.045000000000000005     2.954876294814849        1
6.085                     0.045000000000000005     2.9555501826375723       1
6.195                     0.045000000000000005     2.9385100614770012       1
6.305                     0.045000000000000005     2.9216591221684096       1
6.415                     0.045000000000000005     2.9073630388642377       1
6.525                     0.045000000000000005     2.8625846335827188       1
6.635000000000001         0.045000000000000005     2.803699153678323        1
6.745                     0.045000000000000005     2.7034803964696668       1
6.855                     0.045000000000000005     2.5890053943511404       1
6.964999999999999         0.045000000000000005     2.478200485159425        1
7.074999999999999         0.045000000000000005     0.27236245624844535      1
7.185                     0.045000000000000005     0.12055303355523561      1
7.294999999999999         0.045000000000000005     0.030617423912888332     1
7.405                     0.045000000000000005     -0.05141863707921321     1
7.515                     0.045000000000000005     -0.09568303978800369     1
7.625                     0.045000000000000005     -0.10716429124582738     1
7.734999999999999         0.045000000000000005     -0.11511281712457566     1
7.845                     0.045000000000000005     -0.11803031556868382     1
7.954999999999999         0.045000000000000005     -0.10528700854832823     1
8.065                     0.045000000000000005     -0.10170433661071637     1
8.175                     0.045000000000000005     -0.09673579883848557     1
8.285                     0.045000000000000005     -0.0884543484505864      1
8.395                     0.045000000000000005     -0.08703266884351091     1
8.504999999999999         0.045000000000000005     -0.08125959441229821     1
8.615                     0.045000000000000005     -0.07750066490460614     1
8.725                     0.045000000000000005     -0.07503490911991119     1
8.835                     0.045000000000000005     -0.07456927415352066     1
8.945                     0.045000000000000005     -0.07410363918713007     1
-1.9450000000000005       0.135                    -0.07828750313541266     1
-1.8350000000000004       0.135                    -0.07941188430852938     1
-1.7250000000000003       0.135                    -0.08053626548164607     1
-1.6150000000000002       0.135                    -0.08329242080455375     1
-1.5050000000000003       0.135                    -0.08591848483335965     1
-1.3950000000000005       0.135                    -0.09285097654881408     1
-1.2850000000000006       0.135                    -0.09634560512647419     1
-1.1750000000000007       0.135                    -0.09984023370413375     1
-1.0650000000000004       0.135                    -0.10750180223959874     1
-0.9550000000000005       0.135                    -0.1138021330922481      1
-0.8450000000000005       0.135                    -0.10918998295287624     1
-0.7350000000000003       0.135                    -0.13179278671982692     1
-0.6250000000000004       0.135                    -0.1184020111761881      1
-0.5150000000000003       0.135                    -0.11611870839883887     1
-0.40500000000000047      0.135                    -0.06030714537624657     1
-0.2950000000000004       0.135                    -0.011356995943482051    1
-0.18500000000000028      0.135                    0.10636530298281266      1
-0.0750000000000004       0.135                    0.17422507639865192      1
0.0349999999999997        0.135                    1.9768484003678315       1
0.1449999999999998        0.135                    2.0295199338704393       1
0.25499999999999945       0.135                    2.158741874998209        1
0.36499999999999955       0.135                    2.3306424505330217       1
0.4749999999999994        0.135                    2.364872268622761        1
0.5849999999999993        0.135                    2.4266767020731317       1
0.6949999999999996        0.135                    2.485844044063401        1
0.8049999999999997        0.135                    2.567447473367517        1
0.915                     0.135                    2.6823000532489853       1
1.025                     0.135                    2.5363324641570064       1
1.1349999999999996        0.135                    2.6137198593494753       1
1.2449999999999994        0.135                    2.7224398549973614       1
1.3549999999999998        0.135                    2.6646579652305658       1
1.4649999999999996        0.135                    2.661183221052197        1
1.575                     0.135                    2.704167206966095        1
1.6849999999999998        0.135                    2.6672036030773376       1
1.7949999999999993        0.135                    2.6906143175964066       1
1.9049999999999996        0.135                    2.664160441013675        1
2.0149999999999997        0.135                    2.6291293418579755       1
2.125                     0.135                    2.6739206901950485       1
2.2349999999999994        0.135                    2.6523107395360483       1
2.3449999999999998        0.135                    2.6777243461842457       1
2.455                     0.135                    2.663700652475362        1
2.5649999999999995        0.135                    2.655839774350521        1
2.675                     0.135                    2.6769969570072223       1
2.785                     0.135                    2.6566213524538314       1
2.8949999999999996        0.135                    2.6835327349436455       1
3.005                     0.135                    2.7355424983956          1
3.115                     0.135                    2.7142443911614906       1
3.224999999999999         0.135                    2.722156773702193        1
3.335                     0.135                    2.726208609805576        1
3.445                     0.135                    2.6710670896887425       1
3.5549999999999997        0.135                    2.6649937081638297       1
3.6649999999999996        0.135                    2.7130221153930396       1
3.7750000000000004        0.135                    2.7308535974701718       1
3.8850000000000002        0.135                    2.7282261131638585       1
3.995                     0.135                    2.7945037088502156       1
4.105                     0.135                    2.771662862112486        1
4.214999999999999         0.135                    2.7386629017099144       1
4.324999999999999         0.135                    2.7560411829305957       1
4.435                     0.135                    2.7611228009197495       1
4.544999999999999         0.135                    2.7712903776859013       1
4.655                     0.135                    2.737833019614256        1
4.765                     0.135                    2.7474121348650304       1
4.875                     0.135                    2.768308254230422        1
4.984999999999999         0.135                    2.7779222598149884       1
5.095                     0.135                    2.7725051735655124       1
5.205                     0.135                    2.795728432165866        1
5.315                     0.135                    2.808364974664668        1
5.425                     0.135                    2.8378580162976665       1
5.535000000000001         0.135                    2.839124870870825        1
5.645                     0.135                    2.838392925114821        1
5.755                     0.135                    2.8793762356284653       1
5.864999999999999         0.135                    2.813587685831943        1
5.975                     0.135                    2.803892308291399        1
6.085                     0.135                    2.8391604097478913       1
6.195                     0.135                    2.8291376802435266       1
6.305                     0.135                    2.8180721638926918       1
6.415                     0.135                    2.7779908076883943       1
6.525                     0.135                    2.736096658665252        1
6.635000000000001         0.135                    2.7169986369726224       1
6.745                     0.135                    2.5789812518593864       1
6.855                     0.135                    2.519894270731021        1
6.964999999999999         0.135                    2.395091380105697        1
7.074999999999999         0.135                    0.22221683001091908      1
7.185                     0.135                    0.12168146980477679      1
7.294999999999999         0.135                    0.013308270828397362     1
7.405                     0.135                    -0.06171677641532389     1
7.515                     0.135                    -0.09693403751670225     1
7.625                     0.135                    -0.10946231570080385     1
7.734999999999999         0.135                    -0.11104161132788237     1
7.845                     0.135                    -0.095966635499101       1
7.954999999999999         0.135                    -0.10918568615990476     1
8.065                     0.135                    -0.10027119424941602     1
8.175                     0.135                    -0.09308403007051785     1
8.285                     0.135                    -0.08819974502237424     1
8.395                     0.135                    -0.08603751301371004     1
8.504999999999999         0.135                    -0.08026443858249771     1
8.615                     0.135                    -0.07722569381490371     1
8.725                     0.135                    -0.07474717452699034     1
8.835                     0.135                    -0.07428153956059985     1
8.945                     0.135                    -0.07381590459420938     1
-1.9450000000000005       0.225                    -0.07784255382036605     1
-1.8350000000000004       0.225                    -0.07896693499348267     1
-1.7250000000000003       0.225                    -0.08118520903194056     1
-1.6150000000000002       0.225                    -0.08296501745993384     1
-1.5050000000000003       0.225                    -0.08484421163489175     1
-1.3950000000000005       0.225                    -0.0913100929670288      1
-1.2850000000000006       0.225                    -0.09480472154468847     1
-1.1750000000000007       0.225                    -0.10058753703531453     1
-1.0650000000000004       0.225                    -0.10702035038489954     1
-0.9550000000000005       0.225                    -0.11332068123754889     1
-0.8450000000000005       0.225                    -0.11677711470438773     1
-0.7350000000000003       0.225                    -0.12619997619666257     1
-0.6250000000000004       0.225                    -0.11794582754602673     1
-0.5150000000000003       0.225                    -0.10577761567238675     1
-0.40500000000000047      0.225                    -0.0712252397600465      1
-0.2950000000000004       0.225                    -0.019485110300351882    1
-0.18500000000000028      0.225                    0.09095015398573125      1
-0.0750000000000004       0.225                    0.15880992740157285      1
0.0349999999999997        0.225                    1.3916448578206186       1
0.1449999999999998        0.225                    1.7165274227846385       1
0.25499999999999945       0.225                    1.9187462280845429       1
0.36499999999999955       0.225                    2.019054423426464        1
0.4749999999999994        0.225                    1.9928323702149644       1
0.5849999999999993        0.225                    2.1370304668143776       1
0.6949999999999996        0.225                    2.177689867587772        1
0.8049999999999997        0.225                    2.0830278965754374       1
0.915                     0.225                    2.2033563157277305       1
1.025                     0.225                    2.2149762354416715       1
1.1349999999999996        0.225                    2.292527769470884        1
1.2449999999999994        0.225                    1.9006703158485387       1
1.3549999999999998        0.225                    2.2713499003341413       1
1.4649999999999996        0.225                    2.269224107829676        1
1.575                     0.225                    2.375080329855702        1
1.6849999999999998        0.225                    2.3624725530685757       1
1.7949999999999993        0.225                    2.334917544590976        1
1.9049999999999996        0.225                    2.400092590647966        1
2.0149999999999997        0.225                    2.2967657018934635       1
2.125                     0.225                    2.365160667384135        1
2.2349999999999994        0.225                    2.4282191672452607       1
2.3449999999999998        0.225                    2.4273618415777447       1
2.455                     0.225                    2.4107504149761194       1
2.5649999999999995        0.225                    2.4004952345212276       1
2.675                     0.225                    2.3884320420744167       1
2.785                     0.225                    2.3739199131770543       1
2.8949999999999996        0.225                    2.385871600256244        1
3.005                     0.225                    2.4571246977319667       1
3.115                     0.225                    2.3935051038014765       1
3.224999999999999         0.225                    2.3932602815862745       1
3.335                     0.225                    2.3771833613434996       1
3.445                     0.225                    2.360372587779388        1
3.5549999999999997        0.225                    2.4330860360087776       1
3.6649999999999996        0.225                    2.4811144432379884       1
3.7750000000000004        0.225                    2.421175325592378        1
3.8850000000000002        0.225                    2.448658075509262        1
3.995                     0.225                    2.3501258893653416       1
4.105                     0.225                    2.526613771398437        1
4.214999999999999         0.225                    2.5044300700689957       1
4.324999999999999         0.225                    2.4761992998980547       1
4.435                     0.225                    2.489548020532019        1
4.544999999999999         0.225                    2.5388704832399176       1
4.655                     0.225                    2.5479613132100107       1
4.765                     0.225                    2.5651033668165653       1
4.875                     0.225                    2.5637594653672364       1
4.984999999999999         0.225                    2.5520014451854798       1
5.095                     0.225                    2.6012188131626726       1
5.205                     0.225                    2.545834757167568        1
5.315                     0.225                    2.573473907961489        1
5.425                     0.225                    2.621343305957932        1
5.535000000000001         0.225                    2.524499967670156        1
5.645                     0.225                    2.520252209146478        1
5.755                     0.225                    2.53842748316897         1
5.864999999999999         0.225                    2.5959843752762226       1
5.975                     0.225                    2.6316145691713766       1
6.085                     0.225                    2.6211369550979295       1
6.195                     0.225                    2.628290748793388        1
6.305                     0.225                    2.5702248910948535       1
6.415                     0.225                    2.590724706662434        1
6.525                     0.225                    2.5269984940675685       1
6.635000000000001         0.225                    2.4376391163707676       1
6.745                     0.225                    2.3271916469057525       1
6.855                     0.225                    2.2235854093763585       1
6.964999999999999         0.225                    2.124078641497269        1
7.074999999999999         0.225                    0.2248176957298733       1
7.185                     0.225                    0.1207418371973879       1
7.294999999999999         0.225                    -0.029677382662250118    1
7.405                     0.225                    -0.06296777414402355     1
7.515                     0.225                    -0.09818503524540524     1
7.625                     0.225                    -0.11254977480737349     1
7.734999999999999         0.225                    -0.10706228776070548     1
7.845                     0.225                    -0.11167483522195377     1
7.954999999999999         0.225                    -0.10757310178186832     1
8.065                     0.225                    -0.10051535524417562     1
8.175                     0.225                    -0.09254227692055697     1
8.285                     0.225                    -0.09059044683125149     1
8.395                     0.225                    -0.08504235718390937     1
8.504999999999999         0.225                    -0.07926928275269696     1
8.615                     0.225                    -0.07695072272520093     1
8.725                     0.225                    -0.07483730379686003     1
8.835                     0.225                    -0.0739938049676791      1
8.945                     0.225                    -0.07350047627656715     1
-1.9450000000000005       0.315                    -0.07739760450531932     1
-1.8350000000000004       0.315                    -0.07845568917515558     1
-1.7250000000000003       0.315                    -0.08054560912261743     1
-1.6150000000000002       0.315                    -0.0826376141153137      1
-1.5050000000000003       0.315                    -0.08993425316642344     1
-1.3950000000000005       0.315                    -0.0897692093852433      1
-1.2850000000000006       0.315                    -0.09326383796290302     1
-1.1750000000000007       0.315                    -0.09887237376262825     1
-1.0650000000000004       0.315                    -0.1073299287633892      1
-0.9550000000000005       0.315                    -0.11283922938285001     1
-0.8450000000000005       0.315                    -0.1171059391381224      1
-0.7350000000000003       0.315                    -0.12060716567349816     1
-0.6250000000000004       0.315                    -0.11748964391586525     1
-0.5150000000000003       0.315                    -0.10625651195712793     1
-0.40500000000000047      0.315                    -0.0821433341438443      1
-0.2950000000000004       0.315                    -0.030051893694436727    1
-0.18500000000000028      0.315                    0.060153741238687886     1
-0.0750000000000004       0.315                    0.15091437185735357      1
0.0349999999999997        0.315                    1.1555313570065018       1
0.1449999999999998        0.315                    1.2590858716922284       1
0.25499999999999945       0.315                    1.4661030753539048       1
0.36499999999999955       0.315                    1.5553530746601716       1
0.4749999999999994        0.315                    1.658439611648487        1
0.5849999999999993        0.315                    1.7050163144967136       1
0.6949999999999996        0.315                    1.838338831526893        1
0.8049999999999997        0.315                    1.641613771876019        1
0.915                     0.315                    1.72999847014942         1
1.025                     0.315                    1.7390952410343166       1
1.1349999999999996        0.315                    1.7309551569647144       1
1.2449999999999994        0.315                    1.6628601890111627       1
1.3549999999999998        0.315                    1.8025060786684524       1
1.4649999999999996        0.315                    1.8015421090963768       1
1.575                     0.315                    1.8549562045956964       1
1.6849999999999998        0.315                    1.6437638494886735       1
1.7949999999999993        0.315                    1.5827793523808036       1
1.9049999999999996        0.315                    1.8324596207307269       1
2.0149999999999997        0.315                    1.829998152580034        1
2.125                     0.315                    1.6614925416736033       1
2.2349999999999994        0.315                    1.788151643232064        1
2.3449999999999998        0.315                    1.764003546520679        1
2.455                     0.315                    1.7641246412813203       1
2.5649999999999995        0.315                    1.761200829278252        1
2.675                     0.315                    1.7612303094070292       1
2.785                     0.315                    1.8144521438882233       1
2.8949999999999996        0.315                    1.8215079912824814       1
3.005                     0.315                    1.8321419242335688       1
3.115                     0.315                    1.8175673190888841       1
3.224999999999999         0.315                    1.6467846925142196       1
3.335                     0.315                    1.9211845234444527       1
3.445                     0.315                    1.952509530963845        1
3.5549999999999997        0.315                    1.7441628698993807       1
3.6649999999999996        0.315                    1.8554550154281793       1
3.7750000000000004        0.315                    2.017841914404567        1
3.8850000000000002        0.315                    1.9659888083543628       1
3.995                     0.315                    1.909054770400512        1
4.105                     0.315                    1.91412905500968         1
4.214999999999999         0.315                    1.9994055539765916       1
4.324999999999999         0.315                    2.010773492403826        1
4.435                     0.315                    2.017760751354091        1
4.544999999999999         0.315                    2.0371724814363326       1
4.655                     0.315                    1.9611968347885322       1
4.765                     0.315                    1.9836254046529507       1
4.875                     0.315                    2.0335410186244807       1
4.984999999999999         0.315                    2.04417213264169         1
5.095                     0.315                    2.054803246658903        1
5.205                     0.315                    2.092226170839483        1
5.315                     0.315                    2.1587359732106903       1
5.425                     0.315                    2.1106422366439994       1
5.535000000000001         0.315                    2.174022476090724        1
5.645                     0.315                    2.2021114931781396       1
5.755                     0.315                    2.1974787307094727       1
5.864999999999999         0.315                    2.2116183722650047       1
5.975                     0.315                    2.2138121806157556       1
6.085                     0.315                    2.2213413697758915       1
6.195                     0.315                    2.1518207714861          1
6.305                     0.315                    2.166749614618446        1
6.415                     0.315                    2.177412179335111        1
6.525                     0.315                    2.1276078955407356       1
6.635000000000001         0.315                    2.08425927550232         1
6.745                     0.315                    2.0262584678216147       1