% Model:              sc_magnet.mph
% Version:            COMSOL 6.2.0.415
% Date:               Feb 3 2025, 12:43
% Dimension:          2
% Nodes:              3000
% Expressions:        2
% Description:        Point
% cpl3x                   cpl3y                    Magnetic flux density, x-component Radius
-1.9450000000000005       0.045000000000000005     -0.001327394027034634    1
-1.8350000000000004       0.045000000000000005     0.0013735578441411433    1
-1.7250000000000003       0.045000000000000005     9.680328434325258E-4     1
-1.6150000000000002       0.045000000000000005     5.625078427238528E-4     1
-1.5050000000000003       0.045000000000000005     1.569828420153463E-4     1
-1.3950000000000005       0.045000000000000005     -2.485421586933209E-4    1
-1.2850000000000006       0.045000000000000005     -2.9594233988916585E-4   1
-1.1750000000000007       0.045000000000000005     0.002346834972572931     1
-1.0650000000000004       0.045000000000000005     0.004989612285034639     1
-0.9550000000000005       0.045000000000000005     0.007632389597496014     1
-0.8450000000000005       0.045000000000000005     7.079925833779477E-4     1
-0.7350000000000003       0.045000000000000005     7.079925833779477E-4     1
-0.6250000000000004       0.045000000000000005     7.079925833779477E-4     1
-0.5150000000000003       0.045000000000000005     0.002413958911390124     1
-0.40500000000000047      0.045000000000000005     0.002413958911390124     1
-0.2950000000000004       0.045000000000000005     0.01021211341077466      1
-0.18500000000000028      0.045000000000000005     0.004544709171252492     1
-0.0750000000000004       0.045000000000000005     -0.01566751729229665     1
0.0349999999999997        0.045000000000000005     -0.01946003635809035     1
0.1449999999999998        0.045000000000000005     -0.033403432539188316    1
0.25499999999999945       0.045000000000000005     0.04890500924698471      1
0.36499999999999955       0.045000000000000005     0.044470233777379575     1
0.4749999999999994        0.045000000000000005     0.04447023377738         1
0.5849999999999993        0.045000000000000005     -0.14870376352010817     1
0.6949999999999996        0.045000000000000005     0.04734973612452187      1
0.8049999999999997        0.045000000000000005     0.04734973612452187      1
0.915                     0.045000000000000005     -0.0819138722128463      1
1.025                     0.045000000000000005     -0.07666278412966587     1
1.1349999999999996        0.045000000000000005     -0.16406368697221996     1
1.2449999999999994        0.045000000000000005     0.04785864696879205      1
1.3549999999999998        0.045000000000000005     0.04785864696879205      1
1.4649999999999996        0.045000000000000005     -0.13588279691274582     1
1.575                     0.045000000000000005     -0.101449390213876       1
1.6849999999999998        0.045000000000000005     -0.10594642715233249     1
1.7949999999999993        0.045000000000000005     -0.06425891956582974     1
1.9049999999999996        0.045000000000000005     -0.06512445979821768     1
2.0149999999999997        0.045000000000000005     -0.15595557192990167     1
2.125                     0.045000000000000005     -0.0623762828133525      1
2.2349999999999994        0.045000000000000005     -0.06319041585732466     1
2.3449999999999998        0.045000000000000005     -0.157014558601484       1
2.455                     0.045000000000000005     0.04778709158526784      1
2.5649999999999995        0.045000000000000005     0.04778709158526784      1
2.675                     0.045000000000000005     -0.07633451928962254     1
2.785                     0.045000000000000005     -0.07056100125670817     1
2.8949999999999996        0.045000000000000005     -0.13378692949247295     1
3.005                     0.045000000000000005     -0.06984029101247158     1
3.115                     0.045000000000000005     -0.07265668442883033     1
3.224999999999999         0.045000000000000005     -0.10138535561606421     1
3.335                     0.045000000000000005     -0.04626558130309666     1
3.445                     0.045000000000000005     -0.04228627232561921     1
3.5549999999999997        0.045000000000000005     0.04932539618007192      1
3.6649999999999996        0.045000000000000005     0.04932539618007348      1
3.7750000000000004        0.045000000000000005     -0.15395340455708606     1
3.8850000000000002        0.045000000000000005     -0.0734431953858361      1
3.995                     0.045000000000000005     -0.0722182489554628      1
4.105                     0.045000000000000005     -0.06974787567913587     1
4.214999999999999         0.045000000000000005     -0.06704848805614194     1
4.324999999999999         0.045000000000000005     -0.06434910043315156     1
4.435                     0.045000000000000005     0.048266844978049006     1
4.544999999999999         0.045000000000000005     0.048266844978049006     1
4.655                     0.045000000000000005     -0.14424929405772735     1
4.765                     0.045000000000000005     0.0475099971638715       1
4.875                     0.045000000000000005     0.0475099971638715       1
4.984999999999999         0.045000000000000005     -0.08928387920759207     1
5.095                     0.045000000000000005     -0.05011508258392716     1
5.205                     0.045000000000000005     -0.04875926183573398     1
5.315                     0.045000000000000005     0.048326463661122476     1
5.425                     0.045000000000000005     0.048326463661122476     1
5.535000000000001         0.045000000000000005     -0.15598671321104263     1
5.645                     0.045000000000000005     0.04694137562439504      1
5.755                     0.045000000000000005     0.04694137562439504      1
5.864999999999999         0.045000000000000005     -0.14770671698648563     1
5.975                     0.045000000000000005     0.04645648541747205      1
6.085                     0.045000000000000005     0.04645648541747205      1
6.195                     0.045000000000000005     -0.07664533864734313     1
6.305                     0.045000000000000005     -0.07329966018357847     1
6.415                     0.045000000000000005     -0.13326615869451075     1
6.525                     0.045000000000000005     0.0455860887532733       1
6.635000000000001         0.045000000000000005     0.0455860887532733       1
6.745                     0.045000000000000005     0.023285345764012533     1
6.855                     0.045000000000000005     0.0072939940170606565    1
6.964999999999999         0.045000000000000005     -0.006701248381673963    1
7.074999999999999         0.045000000000000005     -0.0036589910594884145   1
7.185                     0.045000000000000005     -0.0016030277055882891   1
7.294999999999999         0.045000000000000005     -0.005121560643353007    1
7.405                     0.045000000000000005     0.0021268400678069455    1
7.515                     0.045000000000000005     0.0021268400678069455    1
7.625                     0.045000000000000005     0.00139044901535601      1
7.734999999999999         0.045000000000000005     0.00139044901535601      1
7.845                     0.045000000000000005     0.00139044901535601      1
7.954999999999999         0.045000000000000005     -0.002053070373947641    1
8.065                     0.045000000000000005     3.6286940262830227E-4    1
8.175                     0.045000000000000005     3.6286940262830227E-4    1
8.285                     0.045000000000000005     3.6286940262830227E-4    1
8.395                     0.045000000000000005     -0.00158225284279781     1
8.504999999999999         0.045000000000000005     8.521429123143492E-5     1
8.615                     0.045000000000000005     8.521429123143492E-5     1
8.725                     0.045000000000000005     8.521429123143492E-5     1
8.835                     0.045000000000000005     8.521429123143492E-5     1
8.945                     0.045000000000000005     8.521429123143492E-5     1
-1.9450000000000005       0.135                    -0.0012434490301848622   1
-1.8350000000000004       0.135                    -8.767579622973587E-4    1
-1.7250000000000003       0.135                    9.105842305352496E-4     1
-1.6150000000000002       0.135                    5.050592298263823E-4     1
-1.5050000000000003       0.135                    9.953422911797988E-5     1
-1.3950000000000005       0.135                    -3.059907715908214E-4    1
-1.2850000000000006       0.135                    -0.001922032306988175    1
-1.1750000000000007       0.135                    7.207450054731446E-4     1
-1.0650000000000004       0.135                    0.0033635223179355744    1
-0.9550000000000005       0.135                    0.002506066223282838     1
-0.8450000000000005       0.135                    0.003876771626010918     1
-0.7350000000000003       0.135                    0.002123977750133399     1
-0.6250000000000004       0.135                    0.002123977750133399     1
-0.5150000000000003       0.135                    0.004268641853487298     1
-0.40500000000000047      0.135                    0.007241876734168096     1
-0.2950000000000004       0.135                    0.015448244129602884     1
-0.18500000000000028      0.135                    0.01297775934259704      1
-0.0750000000000004       0.135                    -0.0025854597307102267   1
0.0349999999999997        0.135                    -0.012549508363825623    1
0.1449999999999998        0.135                    -0.010451080827635906    1
0.25499999999999945       0.135                    -0.041475841972507865    1
0.36499999999999955       0.135                    -0.011886728302158645    1
0.4749999999999994        0.135                    -0.0033053719257409853   1
0.5849999999999993        0.135                    -0.02119164502956372     1
0.6949999999999996        0.135                    0.14204920837356738      1
0.8049999999999997        0.135                    -0.01981464907644015     1
0.915                     0.135                    -0.01664621143521039     1
1.025                     0.135                    0.047742083667344115     1
1.1349999999999996        0.135                    -0.02194513087768113     1
1.2449999999999994        0.135                    -0.026733523268416715    1
1.3549999999999998        0.135                    0.14357594090637527      1
1.4649999999999996        0.135                    -0.07723708177658128     1
1.575                     0.135                    -0.04886868644656239     1
1.6849999999999998        0.135                    -0.053365723385017105    1
1.7949999999999993        0.135                    -0.08793086853010235     1
1.9049999999999996        0.135                    0.05961801046083903      1
2.0149999999999997        0.135                    -0.021511795338829826    1
2.125                     0.135                    0.06772847430970147      1
2.2349999999999994        0.135                    -0.03255228516783859     1
2.3449999999999998        0.135                    -0.019266305579014598    1
2.455                     0.135                    -0.022364108991814735    1
2.5649999999999995        0.135                    0.1433612747558035       1
2.675                     0.135                    -0.015111794842144047    1
2.785                     0.135                    0.017241840512835616     1
2.8949999999999996        0.135                    -0.03982878725552652     1
3.005                     0.135                    -0.032289007783147916    1
3.115                     0.135                    0.00639640076019532      1
3.224999999999999         0.135                    -0.020009923331934854    1
3.335                     0.135                    0.030214052057297686     1
3.445                     0.135                    -0.02661137559859794     1
3.5549999999999997        0.135                    -0.03191354858598405     1
3.6649999999999996        0.135                    -0.07321411743488532     1
3.7750000000000004        0.135                    -0.09193651948303483     1
3.8850000000000002        0.135                    0.05182477521491391      1
3.995                     0.135                    0.05304972164529431      1
4.105                     0.135                    -0.042134500730739044    1
4.214999999999999         0.135                    0.023672578186810844     1
4.324999999999999         0.135                    -0.02592828224805288     1
4.435                     0.135                    -0.03107771717734309     1
4.544999999999999         0.135                    0.14480053493414768      1
4.655                     0.135                    -0.009575994675989241    1
4.765                     0.135                    -0.022024681016641345    1
4.875                     0.135                    0.14252999149161427      1
4.984999999999999         0.135                    -0.0061285732140277105   1
5.095                     0.135                    0.02088041696161369      1
5.205                     0.135                    -5.306641002107426E-4    1
5.315                     0.135                    -0.05649998880601359     1
5.425                     0.135                    0.14497939098336676      1
5.535000000000001         0.135                    -0.08843522827669048     1
5.645                     0.135                    -0.01004146128141592     1
5.755                     0.135                    0.14082412687318424      1
5.864999999999999         0.135                    -0.01860914628185295     1
5.975                     0.135                    0.1393694562524166       1
6.085                     0.135                    -0.02162512235554992     1
6.195                     0.135                    -0.018012975995612024    1
6.305                     0.135                    -0.04182990794348207     1
6.415                     0.135                    -0.05027423008247567     1
6.525                     0.135                    -0.0588244156816361      1
6.635000000000001         0.135                    -0.007334396797991971    1
6.745                     0.135                    -0.01920139372229812     1
6.855                     0.135                    -0.020875894935969086    1
6.964999999999999         0.135                    -0.029161289841888482    1
7.074999999999999         0.135                    -0.020375870618978553    1
7.185                     0.135                    -0.023391647954747574    1
7.294999999999999         0.135                    0.006117648635219908     1
7.405                     0.135                    0.006380520203419948     1
7.515                     0.135                    -0.006321140757023613    1
7.625                     0.135                    -0.010793598396263704    1
7.734999999999999         0.135                    0.004171347046068696     1
7.845                     0.135                    0.002828736355747097     1
7.954999999999999         0.135                    -0.001871859169995993    1
8.065                     0.135                    0.0010886082078849085    1
8.175                     0.135                    0.0010886082078849085    1
8.285                     0.135                    0.0010886082078849085    1
8.395                     0.135                    -0.0014813337170412333   1
8.504999999999999         0.135                    2.5564287369429783E-4    1
8.615                     0.135                    2.5564287369429783E-4    1
8.725                     0.135                    2.5564287369429783E-4    1
8.835                     0.135                    2.5564287369429783E-4    1
8.945                     0.135                    -6.463412428240334E-4    1
-1.9450000000000005       0.225                    -0.0011595040333351042   1
-1.8350000000000004       0.225                    -7.928129654474897E-4    1
-1.7250000000000003       0.225                    -4.261218975598405E-4    1
-1.6150000000000002       0.225                    4.4761061692895343E-4    1
-1.5050000000000003       0.225                    4.20856162202804E-5      1
-1.3950000000000005       0.225                    -0.00619089958654917     1
-1.2850000000000006       0.225                    -0.0035481222740874063   1
-1.1750000000000007       0.225                    -9.053449616251985E-4    1
-1.0650000000000004       0.225                    7.254254292596851E-4     1
-0.9550000000000005       0.225                    0.0020961308319873972    1
-0.8450000000000005       0.225                    0.0034668362347149845    1
-0.7350000000000003       0.225                    0.003539962916887518     1
-0.6250000000000004       0.225                    -0.0021838608219524325   1
-0.5150000000000003       0.225                    0.005337538102448969     1
-0.40500000000000047      0.225                    -0.018693976414668523    1
-0.2950000000000004       0.225                    0.005132961838970829     1
-0.18500000000000028      0.225                    0.006602321749532791     1
-0.0750000000000004       0.225                    0.013453492092878605     1
0.0349999999999997        0.225                    0.004385537999933575     1
0.1449999999999998        0.225                    -0.08671346639023181     1
0.25499999999999945       0.225                    0.03284651874068345      1
0.36499999999999955       0.225                    -0.11251905666640916     1
0.4749999999999994        0.225                    -0.09589043233930283     1
0.5849999999999993        0.225                    0.10632047346096685      1
0.6949999999999996        0.225                    0.10908840308996037      1
0.8049999999999997        0.225                    0.12049255756575405      1
0.915                     0.225                    0.1236609952069827       1
1.025                     0.225                    0.12682943284821846      1
1.1349999999999996        0.225                    0.12017342521686669      1
1.2449999999999994        0.225                    0.11538503282611967      1
1.3549999999999998        0.225                    -0.01991879920032691     1
1.4649999999999996        0.225                    -0.018591366640466234    1
1.575                     0.225                    -0.0172639340805818      1
1.6849999999999998        0.225                    -0.024130786208507116    1
1.7949999999999993        0.225                    -0.02504300819700389     1
1.9049999999999996        0.225                    -0.025955230185468636    1
2.0149999999999997        0.225                    0.11293198125226134      1
2.125                     0.225                    -0.16491641419477787     1
2.2349999999999994        0.225                    0.1147527408405784       1
2.3449999999999998        0.225                    0.11848194744347429      1
2.455                     0.225                    0.11538414403067376      1
2.5649999999999995        0.225                    -0.09043521996174331     1
2.675                     0.225                    -0.09272294306162543     1
2.785                     0.225                    0.06597083335033904      1
2.8949999999999996        0.225                    0.05412935498139859      1
3.005                     0.225                    0.06138106475446925      1
3.115                     0.225                    0.0624926930866927       1
3.224999999999999         0.225                    -0.05885507040351712     1
3.335                     0.225                    -0.045683775392928005    1
3.445                     0.225                    0.02715064342337925      1
3.5549999999999997        0.225                    -0.012479661448868917    1
3.6649999999999996        0.225                    -0.008198300085707544    1
3.7750000000000004        0.225                    -0.029919634408976492    1
3.8850000000000002        0.225                    -0.030278840163797227    1
3.995                     0.225                    0.10243265007844793      1
4.105                     0.225                    0.09437805453208868      1
4.214999999999999         0.225                    0.1143936444297836       1
4.324999999999999         0.225                    0.06703268559904174      1
4.435                     0.225                    0.0870348771497147       1
4.544999999999999         0.225                    -0.10707850721789569     1
4.655                     0.225                    0.12509730470576166      1
4.765                     0.225                    0.10895187026230946      1
4.875                     0.225                    -0.12043625880683972     1
4.984999999999999         0.225                    -0.1252581684342502      1
5.095                     0.225                    -0.155689945766321       1
5.205                     0.225                    0.0659102009433532       1
5.315                     0.225                    0.041898210160077776     1
5.425                     0.225                    -0.019495300459863252    1
5.535000000000001         0.225                    -0.02088374334234544     1
5.645                     0.225                    0.11859164529764588      1
5.755                     0.225                    -0.11502478248057812     1
5.864999999999999         0.225                    0.11048842442279194      1
5.975                     0.225                    0.10393169651740186      1
6.085                     0.225                    -0.15424715772951814     1
6.195                     0.225                    -0.15875476254150556     1
6.305                     0.225                    0.04116202066855923      1
6.415                     0.225                    0.032717698529578954     1
6.525                     0.225                    -0.11357441151326064     1
6.635000000000001         0.225                    0.017464421056907042     1
6.745                     0.225                    0.04083599019361017      1
6.855                     0.225                    0.0307277517792075       1
6.964999999999999         0.225                    0.03278538808477549      1
7.074999999999999         0.225                    0.006537587343359519     1
7.185                     0.225                    -0.05765932218825043     1
7.294999999999999         0.225                    0.012614157425631767     1
7.405                     0.225                    -0.00337736193411331     1
7.515                     0.225                    -0.006619863612764121    1
7.625                     0.225                    -0.01109232125199533     1
7.734999999999999         0.225                    0.007710543085443389     1
7.845                     0.225                    0.0030099475597018532    1
7.954999999999999         0.225                    -0.0016906479660416807   1
8.065                     0.225                    0.0018143470131415373    1
8.175                     0.225                    0.0018143470131415373    1
8.285                     0.225                    -9.12495698779936E-4     1
8.395                     0.225                    -0.0013804145912849064   1
8.504999999999999         0.225                    4.260714561571677E-4     1
8.615                     0.225                    4.260714561571677E-4     1
8.725                     0.225                    4.260714561571677E-4     1
8.835                     0.225                    -1.5969276710481317E-4   1
8.945                     0.225                    -3.60577792609007E-4     1
-1.9450000000000005       0.315                    -0.0010755590364855822   1
-1.8350000000000004       0.315                    -7.08867968597704E-4     1
-1.7250000000000003       0.315                    -3.421769007100686E-4    1
-1.6150000000000002       0.315                    2.4514167177754065E-5    1
-1.5050000000000003       0.315                    -1.5362996677009688E-5   1
-1.3950000000000005       0.315                    -0.007816989553648401    1
-1.2850000000000006       0.315                    -0.0051742122411861935   1
-1.1750000000000007       0.315                    -0.0010552153647637175   1
-1.0650000000000004       0.315                    3.154900379637726E-4     1
-0.9550000000000005       0.315                    0.0016861954406912072    1
-0.8450000000000005       0.315                    0.0030569008434191136    1
-0.7350000000000003       0.315                    0.004955948083646078     1
-0.6250000000000004       0.315                    -0.009923724370968445    1
-0.5150000000000003       0.315                    -0.0038410299328214548   1
-0.40500000000000047      0.315                    -0.015465722165680651    1
-0.2950000000000004       0.315                    0.004263957469506252     1
-0.18500000000000028      0.315                    -0.07701422887876674     1
-0.0750000000000004       0.315                    -0.009791314401184081    1
0.0349999999999997        0.315                    0.060611115065700716     1
0.1449999999999998        0.315                    -0.014437847647419844    1
0.25499999999999945       0.315                    0.0029442570219728736    1
0.36499999999999955       0.315                    0.042052129786169345     1
0.4749999999999994        0.315                    0.06193944947040464      1
0.5849999999999993        0.315                    -0.05022627617949382     1
0.6949999999999996        0.315                    -0.029810941149982284    1
0.8049999999999997        0.315                    -0.004943477567376675    1
0.915                     0.315                    -0.005478381307053581    1
1.025                     0.315                    -0.07021588425414671     1
1.1349999999999996        0.315                    -0.00846944741705613     1
1.2449999999999994        0.315                    -0.010131108519203735    1
1.3549999999999998        0.315                    -0.11835495801183171     1
1.4649999999999996        0.315                    0.04360913959826718      1
1.575                     0.315                    0.04921365181266424      1
1.6849999999999998        0.315                    0.006037696431320683     1
1.7949999999999993        0.315                    0.039328462615017656     1
1.9049999999999996        0.315                    -0.10483247514011396     1
2.0149999999999997        0.315                    -0.020808958271686606    1
2.125                     0.315                    -0.06831328281659665     1
2.2349999999999994        0.315                    -0.02995820703470997     1
2.3449999999999998        0.315                    -0.3352442674930458      1
2.455                     0.315                    -0.013998665738903071    1
2.5649999999999995        0.315                    -0.06808607529564448     1
2.675                     0.315                    0.01499675112772536      1
2.785                     0.315                    -2.420410607157919E-4    1
2.8949999999999996        0.315                    -0.009266140916146526    1
3.005                     0.315                    -0.012773758907709265    1
3.115                     0.315                    -0.09755681362755912     1
3.224999999999999         0.315                    0.001392589578909309     1
3.335                     0.315                    0.003431766222014687     1
3.445                     0.315                    -0.0017530124152234094   1
3.5549999999999997        0.315                    0.008380502801358602     1
3.6649999999999996        0.315                    0.004294125173164076     1
3.7750000000000004        0.315                    0.04333826794790152      1
3.8850000000000002        0.315                    0.040775644520042675     1
3.995                     0.315                    -0.09056848902660875     1
4.105                     0.315                    0.07643111841371919      1
4.214999999999999         0.315                    -0.033117316311233935    1
4.324999999999999         0.315                    0.0268908680547284       1
4.435                     0.315                    0.028767989190146837     1
4.544999999999999         0.315                    0.023411593451086787     1
4.655                     0.315                    -0.12167025162482048     1
4.765                     0.315                    -0.08190960280331794     1
4.875                     0.315                    -0.10996709899400836     1
4.984999999999999         0.315                    0.0063733827196088555    1
5.095                     0.315                    -0.006936100697728875    1
5.205                     0.315                    -0.12699645350008382     1
5.315                     0.315                    0.021658898137058458     1
5.425                     0.315                    -0.009172675577666212    1
5.535000000000001         0.315                    0.04581277451939014      1
5.645                     0.315                    0.02023990017777655      1
5.755                     0.315                    0.02069659285138492      1
5.864999999999999         0.315                    -0.07768223072469027     1
5.975                     0.315                    -0.10335637081431948     1
6.085                     0.315                    -0.03006008159257334     1
6.195                     0.315                    -0.06843357123818805     1
6.305                     0.315                    -0.007246804660949735    1
6.415                     0.315                    -0.11600762752422611     1
6.525                     0.315                    -0.09768166226697478     1
6.635000000000001         0.315                    0.12173782933317057      1
6.745                     0.315                    0.006904628540391755     1