% Model:              sc_magnet.mph
% Version:            COMSOL 6.2.0.415
% Date:               Feb 3 2025, 12:36
% Dimension:          2
% Nodes:              3000
% Expressions:        2
% Description:        Point
% cpl7x                   cpl7y                    Magnetic flux density, z-component Radius
-1.9450000000000005       0.045000000000000005     -0.0029122548647808957   1
-1.8350000000000004       0.045000000000000005     -0.008736764594342694    1
-1.7250000000000003       0.045000000000000005     -0.014776363761999589    1
-1.6150000000000002       0.045000000000000005     -0.02036940580144764     1
-1.5050000000000003       0.045000000000000005     -0.027059889066629504    1
-1.3950000000000005       0.045000000000000005     -0.03650107359811826     1
-1.2850000000000006       0.045000000000000005     -0.045942258129607054    1
-1.1750000000000007       0.045000000000000005     -0.060556083004468686    1
-1.0650000000000004       0.045000000000000005     -0.0893446462366925      1
-0.9550000000000005       0.045000000000000005     -0.11542965768269486     1
-0.8450000000000005       0.045000000000000005     -0.14151466912869723     1
-0.7350000000000003       0.045000000000000005     -0.1899087116437606      1
-0.6250000000000004       0.045000000000000005     -0.28874290743685815     1
-0.5150000000000003       0.045000000000000005     -0.39919035208493847     1
-0.40500000000000047      0.045000000000000005     -0.5096377967330188      1
-0.2950000000000004       0.045000000000000005     -0.7126158955000541      1
-0.18500000000000028      0.045000000000000005     -1.0654840025690984      1
-0.0750000000000004       0.045000000000000005     -1.3056455672426672      1
0.0349999999999997        0.045000000000000005     -1.314265336115385       1
0.1449999999999998        0.045000000000000005     -1.2414541143733508      1
0.25499999999999945       0.045000000000000005     -0.9040695554834999      1
0.36499999999999955       0.045000000000000005     -0.6493095100464059      1
0.4749999999999994        0.045000000000000005     -0.4550377328399966      1
0.5849999999999993        0.045000000000000005     -0.3132561371690472      1
0.6949999999999996        0.045000000000000005     -0.24142736198065717     1
0.8049999999999997        0.045000000000000005     -0.17603292944325966     1
0.915                     0.045000000000000005     -0.13320336564837065     1
1.025                     0.045000000000000005     -0.10258914754352699     1
1.1349999999999996        0.045000000000000005     -0.07079390238550842     1
1.2449999999999994        0.045000000000000005     -0.05581874888468619     1
1.3549999999999998        0.045000000000000005     -0.03994669811137053     1
1.4649999999999996        0.045000000000000005     -0.031229619028242422    1
1.575                     0.045000000000000005     -0.02412558843221202     1
1.6849999999999998        0.045000000000000005     -0.019821911261472036    1
1.7949999999999993        0.045000000000000005     -0.015235825289939726    1
1.9049999999999996        0.045000000000000005     -0.007361396758651106    1
2.0149999999999997        0.045000000000000005     0.00189382911671776      1
2.125                     0.045000000000000005     0.0016056865998606007    1
2.2349999999999994        0.045000000000000005     0.0051780031853041475    1
2.3449999999999998        0.045000000000000005     0.010934604436242168     1
2.455                     0.045000000000000005     0.010645349000846238     1
2.5649999999999995        0.045000000000000005     0.01963822213309252      1
2.675                     0.045000000000000005     0.006032734644168564     1
2.785                     0.045000000000000005     0.01756281123738096      1
2.8949999999999996        0.045000000000000005     0.019260481101745164     1
3.005                     0.045000000000000005     0.022375795772527185     1
3.115                     0.045000000000000005     0.02382543927202159      1
3.224999999999999         0.045000000000000005     0.026345283341850045     1
3.335                     0.045000000000000005     0.025992954573502258     1
3.445                     0.045000000000000005     0.027749932005804112     1
3.5549999999999997        0.045000000000000005     0.03310760388168099      1
3.6649999999999996        0.045000000000000005     0.03540239778375809      1
3.7750000000000004        0.045000000000000005     0.03442830804418244      1
3.8850000000000002        0.045000000000000005     0.03355867785527744      1
3.995                     0.045000000000000005     0.04295284161688732      1
4.105                     0.045000000000000005     0.04086929709753119      1
4.214999999999999         0.045000000000000005     0.0451025273670691       1
4.324999999999999         0.045000000000000005     0.04018801031060931      1
4.435                     0.045000000000000005     0.0443277314271765       1
4.544999999999999         0.045000000000000005     0.051909169333175575     1
4.655                     0.045000000000000005     0.0508738952097364       1
4.765                     0.045000000000000005     0.0510290445114121       1
4.875                     0.045000000000000005     0.04594652368679535      1
4.984999999999999         0.045000000000000005     0.0464046344664768       1
5.095                     0.045000000000000005     0.06825537524582526      1
5.205                     0.045000000000000005     0.05643622744567223      1
5.315                     0.045000000000000005     0.044092981615841964     1
5.425                     0.045000000000000005     0.06833830690692796      1
5.535000000000001         0.045000000000000005     0.07760250685619097      1
5.645                     0.045000000000000005     0.07400046429418428      1
5.755                     0.045000000000000005     0.09392254441109349      1
5.864999999999999         0.045000000000000005     0.11131079732242366      1
5.975                     0.045000000000000005     0.11958885352552061      1
6.085                     0.045000000000000005     0.14714668872744996      1
6.195                     0.045000000000000005     0.18482924521681543      1
6.305                     0.045000000000000005     0.23609124332511122      1
6.415                     0.045000000000000005     0.3115169010910145       1
6.525                     0.045000000000000005     0.4265534373967137       1
6.635000000000001         0.045000000000000005     0.6035220115516648       1
6.745                     0.045000000000000005     0.8420655857787835       1
6.855                     0.045000000000000005     1.1248573723357407       1
6.964999999999999         0.045000000000000005     1.1738400710255092       1
7.074999999999999         0.045000000000000005     1.1941495957426502       1
7.185                     0.045000000000000005     0.9871158416762642       1
7.294999999999999         0.045000000000000005     0.7080279888677925       1
7.405                     0.045000000000000005     0.5048387402192476       1
7.515                     0.045000000000000005     0.3311105305028906       1
7.625                     0.045000000000000005     0.23880538952609984      1
7.734999999999999         0.045000000000000005     0.18401222476724313      1
7.845                     0.045000000000000005     0.13221883833703055      1
7.954999999999999         0.045000000000000005     0.10705900998571594      1
8.065                     0.045000000000000005     0.08189918163440257      1
8.175                     0.045000000000000005     0.061447478399246656     1
8.285                     0.045000000000000005     0.04415439387535326      1
8.395                     0.045000000000000005     0.035492317922829114     1
8.504999999999999         0.045000000000000005     0.028332104000124647     1
8.615                     0.045000000000000005     0.02023100621858054      1
8.725                     0.045000000000000005     0.012588832006225625     1
8.835                     0.045000000000000005     0.006341398261849332     1
8.945                     0.045000000000000005     0.0021137994206164397    1
-1.9450000000000005       0.135                    -0.0029122548647808957   1
-1.8350000000000004       0.135                    -0.008736764594342694    1
-1.7250000000000003       0.135                    -0.014051599554970345    1
-1.6150000000000002       0.135                    -0.020621277161850644    1
-1.5050000000000003       0.135                    -0.027079900812691484    1
-1.3950000000000005       0.135                    -0.03652108534418042     1
-1.2850000000000006       0.135                    -0.04770090779518181     1
-1.1750000000000007       0.135                    -0.060666071435496294    1
-1.0650000000000004       0.135                    -0.08803130676283291     1
-0.9550000000000005       0.135                    -0.11159020563461884     1
-0.8450000000000005       0.135                    -0.1460258758977174      1
-0.7350000000000003       0.135                    -0.19062174151977612     1
-0.6250000000000004       0.135                    -0.2621651541813871      1
-0.5150000000000003       0.135                    -0.3794430085595717      1
-0.40500000000000047      0.135                    -0.5427553010770092      1
-0.2950000000000004       0.135                    -0.7441246178554455      1
-0.18500000000000028      0.135                    -1.051409101263717       1
-0.0750000000000004       0.135                    -1.2774197594116679      1
0.0349999999999997        0.135                    -1.3629174380872016      1
0.1449999999999998        0.135                    -1.2266137782935047      1
0.25499999999999945       0.135                    -0.8848815215108417      1
0.36499999999999955       0.135                    -0.6286628176095492      1
0.4749999999999994        0.135                    -0.442753219964354       1
0.5849999999999993        0.135                    -0.3262036938130066      1
0.6949999999999996        0.135                    -0.23843660137638167     1
0.8049999999999997        0.135                    -0.17767836626967135     1
0.915                     0.135                    -0.12690894871954628     1
1.025                     0.135                    -0.09355715861220315     1
1.1349999999999996        0.135                    -0.08167422977404781     1
1.2449999999999994        0.135                    -0.05370577912648486     1
1.3549999999999998        0.135                    -0.04722145211004192     1
1.4649999999999996        0.135                    -0.01473342274746732     1
1.575                     0.135                    -0.025767499679733796    1
1.6849999999999998        0.135                    -0.0116696202916442      1
1.7949999999999993        0.135                    -0.011555103974052815    1
1.9049999999999996        0.135                    -0.006961693773688493    1
2.0149999999999997        0.135                    -0.001705198695700072    1
2.125                     0.135                    0.001961232827685233     1
2.2349999999999994        0.135                    0.004161667782619283     1
2.3449999999999998        0.135                    0.0034581582903290276    1
2.455                     0.135                    0.014814029603581247     1
2.5649999999999995        0.135                    0.009856384526836903     1
2.675                     0.135                    0.025201528980907995     1
2.785                     0.135                    0.021809751312856118     1
2.8949999999999996        0.135                    0.021587894209413427     1
3.005                     0.135                    0.026214919873547515     1
3.115                     0.135                    0.02588125445971634      1
3.224999999999999         0.135                    0.03136804282373111      1
3.335                     0.135                    0.020243071324219986     1
3.445                     0.135                    0.0306910744414175       1
3.5549999999999997        0.135                    0.03665044311939347      1
3.6649999999999996        0.135                    0.036078531637259825     1
3.7750000000000004        0.135                    0.032835552584801586     1
3.8850000000000002        0.135                    0.034251213963647054     1
3.995                     0.135                    0.044086690610608215     1
4.105                     0.135                    0.03140037964747883      1
4.214999999999999         0.135                    0.042745520926722236     1
4.324999999999999         0.135                    0.03881960156269704      1
4.435                     0.135                    0.04651801239704345      1
4.544999999999999         0.135                    0.046051568922120145     1
4.655                     0.135                    0.05073897517838877      1
4.765                     0.135                    0.048047795509237434     1
4.875                     0.135                    0.06924726776205092      1
4.984999999999999         0.135                    0.05665105506379697      1
5.095                     0.135                    0.05531721320131111      1
5.205                     0.135                    0.06021696187784542      1
5.315                     0.135                    0.06238568451169102      1
5.425                     0.135                    0.08994030383707474      1
5.535000000000001         0.135                    0.07485557534642362      1
5.645                     0.135                    0.09387633975107401      1
5.755                     0.135                    0.08748521076039484      1
5.864999999999999         0.135                    0.1092908998901474       1
5.975                     0.135                    0.1256374011923057       1
6.085                     0.135                    0.13588514629088544      1
6.195                     0.135                    0.1806614090219627       1
6.305                     0.135                    0.23217799914748255      1
6.415                     0.135                    0.30118700298755074      1
6.525                     0.135                    0.4258516910774155       1
6.635000000000001         0.135                    0.6025398732948473       1
6.745                     0.135                    0.8622507556610666       1
6.855                     0.135                    1.087225791053594        1
6.964999999999999         0.135                    1.2097684804319213       1
7.074999999999999         0.135                    1.1064012418111586       1
7.185                     0.135                    0.8864702785662246       1
7.294999999999999         0.135                    0.6694664836388302       1
7.405                     0.135                    0.4978450612845          1
7.515                     0.135                    0.33423553118878313      1
7.625                     0.135                    0.23824213791946158      1
7.734999999999999         0.135                    0.17075724307766982      1
7.845                     0.135                    0.13436682297813474      1
7.954999999999999         0.135                    0.1028534197104922       1
8.065                     0.135                    0.0776935913591795       1
8.175                     0.135                    0.05728829108662803      1
8.285                     0.135                    0.04519370609690762      1
8.395                     0.135                    0.034536852025192494     1
8.504999999999999         0.135                    0.026658602804475295     1
8.615                     0.135                    0.018780353583757847     1
8.725                     0.135                    0.012029504988679676     1
8.835                     0.135                    0.006341398261849332     1
8.945                     0.135                    0.00211379942061643      1
-1.9450000000000005       0.225                    -0.0029122548647808957   1
-1.8350000000000004       0.225                    -0.008140251512080837    1
-1.7250000000000003       0.225                    -0.013326835347940963    1
-1.6150000000000002       0.225                    -0.020873148522253616    1
-1.5050000000000003       0.225                    -0.02709991255875391     1
-1.3950000000000005       0.225                    -0.03654109709024275     1
-1.2850000000000006       0.225                    -0.046816378707990505    1
-1.1750000000000007       0.225                    -0.05612243915500128     1
-1.0650000000000004       0.225                    -0.06945127064799288     1
-0.9550000000000005       0.225                    -0.10388694091109005     1
-0.8450000000000005       0.225                    -0.13887288106386397     1
-0.7350000000000003       0.225                    -0.19133477139579258     1
-0.6250000000000004       0.225                    -0.2437966617277197      1
-0.5150000000000003       0.225                    -0.3401864249264417      1
-0.40500000000000047      0.225                    -0.5264134883125662      1
-0.2950000000000004       0.225                    -0.71116444430112        1
-0.18500000000000028      0.225                    -0.9987907094283432      1
-0.0750000000000004       0.225                    -1.222046409092215       1
0.0349999999999997        0.225                    -1.3684546578209016      1
0.1449999999999998        0.225                    -1.102739182725637       1
0.25499999999999945       0.225                    -0.8279842244238846      1
0.36499999999999955       0.225                    -0.6032746898941301      1
0.4749999999999994        0.225                    -0.44101942272595096     1
0.5849999999999993        0.225                    -0.3106140796571615      1
0.6949999999999996        0.225                    -0.23844952718996465     1
0.8049999999999997        0.225                    -0.1862148020665213      1
0.915                     0.225                    -0.12517629007272824     1
1.025                     0.225                    -0.08046279749448448     1
1.1349999999999996        0.225                    -0.06647514838154767     1
1.2449999999999994        0.225                    -0.07654626265143372     1
1.3549999999999998        0.225                    -0.03875352098660623     1
1.4649999999999996        0.225                    -0.043927741513705154    1
1.575                     0.225                    -0.028615662446835444    1
1.6849999999999998        0.225                    -0.05874572035300954     1
1.7949999999999993        0.225                    -0.025824272484647803    1
1.9049999999999996        0.225                    -0.030705781442836533    1
2.0149999999999997        0.225                    -0.001662051109009438    1
2.125                     0.225                    0.002463016181337707     1
2.2349999999999994        0.225                    0.02151947573828039      1
2.3449999999999998        0.225                    0.0011914256878919893    1
2.455                     0.225                    0.006840063943329255     1
2.5649999999999995        0.225                    7.454692058117551E-5     1
2.675                     0.225                    0.0074413789640601635    1
2.785                     0.225                    0.0015072804583944333    1
2.8949999999999996        0.225                    0.01682933327801095      1
3.005                     0.225                    0.05863457927274984      1
3.115                     0.225                    0.01958707759906586      1
3.224999999999999         0.225                    0.012142814068560659     1
3.335                     0.225                    0.04245972694467999      1
3.445                     0.225                    0.023863698412405654     1
3.5549999999999997        0.225                    0.03279416607237469      1
3.6649999999999996        0.225                    0.057962990195596475     1
3.7750000000000004        0.225                    0.02789993194752416      1
3.8850000000000002        0.225                    0.03866598852065062      1
3.995                     0.225                    0.016361452663018028     1
4.105                     0.225                    0.06887061443438736      1
4.214999999999999         0.225                    0.04397848262479087      1
4.324999999999999         0.225                    0.05598117412127321      1
4.435                     0.225                    0.03324635471183679      1
4.544999999999999         0.225                    0.05010809280923123      1
4.655                     0.225                    0.007704244340680955     1
4.765                     0.225                    0.047487219184932705     1
4.875                     0.225                    0.05160917176960389      1
4.984999999999999         0.225                    0.05725273361039773      1
5.095                     0.225                    0.05795777607800748      1
5.205                     0.225                    0.06399769631002172      1
5.315                     0.225                    0.08010597598701175      1
5.425                     0.225                    0.055654665381398516     1
5.535000000000001         0.225                    0.07802342874065948      1
5.645                     0.225                    0.07811804360480767      1
5.755                     0.225                    0.10458243415931268      1
5.864999999999999         0.225                    0.08988077111047932      1
5.975                     0.225                    0.11284738251567283      1
6.085                     0.225                    0.1486533398115729       1
6.195                     0.225                    0.1574495893634662       1
6.305                     0.225                    0.19797090721442512      1
6.415                     0.225                    0.2954762724469322       1
6.525                     0.225                    0.40001169090868754      1
6.635000000000001         0.225                    0.5410497897682283       1
6.745                     0.225                    0.7680775148272447       1
6.855                     0.225                    1.0304020069085125       1
6.964999999999999         0.225                    1.1235716075347504       1
7.074999999999999         0.225                    1.069152767121711        1
7.185                     0.225                    0.8828530264547396       1
7.294999999999999         0.225                    0.6416289696922721       1
7.405                     0.225                    0.47277618668185184      1
7.515                     0.225                    0.31820804616555476      1
7.625                     0.225                    0.21709256131736065      1
7.734999999999999         0.225                    0.16723994333368486      1
7.845                     0.225                    0.12658762466909113      1
7.954999999999999         0.225                    0.09509242410271956      1
8.065                     0.225                    0.07032829061354029      1
8.175                     0.225                    0.05288871332403702      1
8.285                     0.225                    0.0429664381966738       1
8.395                     0.225                    0.03286335082954296      1
8.504999999999999         0.225                    0.024985101608826        1
8.615                     0.225                    0.017914455566617582     1
8.725                     0.225                    0.012501622641113208     1
8.835                     0.225                    0.0043746297594230155    1
8.945                     0.225                    0.002113799420616437     1
-1.9450000000000005       0.315                    -0.0029122548647808957   1
-1.8350000000000004       0.315                    -0.00741548730505151     1
-1.7250000000000003       0.315                    -0.012602071140911664    1
-1.6150000000000002       0.315                    -0.017788654976771803    1
-1.5050000000000003       0.315                    -0.027119924304816197    1
-1.3950000000000005       0.315                    -0.03662578917378756     1
-1.2850000000000006       0.315                    -0.04593184962079852     1
-1.1750000000000007       0.315                    -0.05991068940979252     1
-1.0650000000000004       0.315                    -0.07899608563743493     1
-0.9550000000000005       0.315                    -0.09618367618756257     1
-0.8450000000000005       0.315                    -0.13958591093987982     1
-0.7350000000000003       0.315                    -0.19154044896714484     1
-0.6250000000000004       0.315                    -0.24260037590710282     1
-0.5150000000000003       0.315                    -0.3384353557582588      1
-0.40500000000000047      0.315                    -0.4594622855312419      1
-0.2950000000000004       0.315                    -0.6630520319174066      1
-0.18500000000000028      0.315                    -0.8921548585645098      1
-0.0750000000000004       0.315                    -1.1491568309270654      1
0.0349999999999997        0.315                    -1.100484563659701       1
0.1449999999999998        0.315                    -1.0255152932555447      1
0.25499999999999945       0.315                    -0.7630284586824039      1
0.36499999999999955       0.315                    -0.5661093674870532      1
0.4749999999999994        0.315                    -0.3551059067469424      1
0.5849999999999993        0.315                    -0.29171009793018154     1
0.6949999999999996        0.315                    -0.2110255485753343      1
0.8049999999999997        0.315                    -0.10443547473211012     1
0.915                     0.315                    -0.13246290021913865     1
1.025                     0.315                    -0.049031772468173696    1
1.1349999999999996        0.315                    -0.058125080589015       1
1.2449999999999994        0.315                    -0.08056564498357188     1
1.3549999999999998        0.315                    -0.0497475736163544      1
1.4649999999999996        0.315                    -0.028333751426679488    1
1.575                     0.315                    -0.04908234104523146     1
1.6849999999999998        0.315                    -0.03131402776791148     1
1.7949999999999993        0.315                    -0.0028854267792830512   1
1.9049999999999996        0.315                    -0.014511741394346522    1
2.0149999999999997        0.315                    0.04047875578568905      1
2.125                     0.315                    -0.061156541808273346    1
2.2349999999999994        0.315                    0.0024060461760417873    1
2.3449999999999998        0.315                    -0.012741343108668701    1
2.455                     0.315                    0.006627482436751819     1
2.5649999999999995        0.315                    0.07929174964572094      1
2.675                     0.315                    0.023323517894014323     1
2.785                     0.315                    0.03980057301865436      1
2.8949999999999996        0.315                    0.001949737735135848     1
3.005                     0.315                    0.03813534453203249      1
3.115                     0.315                    0.047279715101934516     1
3.224999999999999         0.315                    0.02602267891564125      1
3.335                     0.315                    0.031745828347387095     1
3.445                     0.315                    0.03344663906644785      1
3.5549999999999997        0.315                    0.05444864408402594      1
3.6649999999999996        0.315                    0.026221338635062708     1
3.7750000000000004        0.315                    0.03386507470079003      1
3.8850000000000002        0.315                    0.03307925502480735      1
3.995                     0.315                    0.030287538354139443     1
4.105                     0.315                    0.05308140851019694      1
4.214999999999999         0.315                    0.08979418750682466      1
4.324999999999999         0.315                    0.0515888397868105       1
4.435                     0.315                    0.0356829052269822       1
4.544999999999999         0.315                    0.05355279528283985      1
4.655                     0.315                    0.06218553097933776      1
4.765                     0.315                    0.045988939063001055     1
4.875                     0.315                    0.06946293367434464      1
4.984999999999999         0.315                    -0.11806985584679985     1
5.095                     0.315                    0.07798181867374954      1
5.205                     0.315                    0.05943563198869484      1
5.315                     0.315                    0.07120586474966917      1
5.425                     0.315                    0.09078690102299591      1
5.535000000000001         0.315                    0.10411828861720895      1
5.645                     0.315                    0.07295546026379363      1
5.755                     0.315                    0.11047106784438832      1
5.864999999999999         0.315                    0.1067706261050303       1
5.975                     0.315                    0.1153323322701939       1
6.085                     0.315                    0.16633991862380304      1
6.195                     0.315                    0.15942324097246363      1
6.305                     0.315                    0.22135146262742644      1
6.415                     0.315                    0.2752278989171204       1
6.525                     0.315                    0.36902052206103875      1
6.635000000000001         0.315                    0.49628998743338415      1
6.745                     0.315                    0.7085054166357172       1