% Model:              sc_magnet.mph
% Version:            COMSOL 6.2.0.415
% Date:               Feb 3 2025, 12:43
% Dimension:          2
% Nodes:              3000
% Expressions:        2
% Description:        Point
% cpl3x                   cpl3y                    Magnetic flux density, y-component Radius
-1.9450000000000005       0.045000000000000005     -0.09547481803967509     1
-1.8350000000000004       0.045000000000000005     -0.09596294227123706     1
-1.7250000000000003       0.045000000000000005     -0.10159224933331185     1
-1.6150000000000002       0.045000000000000005     -0.10722155639538666     1
-1.5050000000000003       0.045000000000000005     -0.1128508634574613      1
-1.3950000000000005       0.045000000000000005     -0.11848017051953645     1
-1.2850000000000006       0.045000000000000005     -0.13774791124159846     1
-1.1750000000000007       0.045000000000000005     -0.1579557995348848      1
-1.0650000000000004       0.045000000000000005     -0.17816368782817166     1
-0.9550000000000005       0.045000000000000005     -0.19837157612145812     1
-0.8450000000000005       0.045000000000000005     -0.2453608679380519      1
-0.7350000000000003       0.045000000000000005     -0.3173488328998135      1
-0.6250000000000004       0.045000000000000005     -0.3893367978615764      1
-0.5150000000000003       0.045000000000000005     -0.5130994672519549      1
-0.40500000000000047      0.045000000000000005     -0.756318750364372       1
-0.2950000000000004       0.045000000000000005     -1.115047757747357       1
-0.18500000000000028      0.045000000000000005     -1.7436983759602498      1
-0.0750000000000004       0.045000000000000005     -2.892471867130965       1
0.0349999999999997        0.045000000000000005     7.139766385186988        1
0.1449999999999998        0.045000000000000005     6.393592978301594        1
0.25499999999999945       0.045000000000000005     5.958010441562345        1
0.36499999999999955       0.045000000000000005     5.691474545812669        1
0.4749999999999994        0.045000000000000005     5.540786480824702        1
0.5849999999999993        0.045000000000000005     5.390242289057353        1
0.6949999999999996        0.045000000000000005     5.391172545595193        1
0.8049999999999997        0.045000000000000005     5.350009229384306        1
0.915                     0.045000000000000005     5.308403147427121        1
1.025                     0.045000000000000005     5.295325087913082        1
1.1349999999999996        0.045000000000000005     5.234918271048199        1
1.2449999999999994        0.045000000000000005     5.273396214976115        1
1.3549999999999998        0.045000000000000005     5.270273051014018        1
1.4649999999999996        0.045000000000000005     5.206965339105909        1
1.575                     0.045000000000000005     5.252558105633758        1
1.6849999999999998        0.045000000000000005     5.253836456551446        1
1.7949999999999993        0.045000000000000005     5.244244791369716        1
1.9049999999999996        0.045000000000000005     5.2434617857902115       1
2.0149999999999997        0.045000000000000005     5.214979310518601        1
2.125                     0.045000000000000005     5.243691927886766        1
2.2349999999999994        0.045000000000000005     5.24239977169911         1
2.3449999999999998        0.045000000000000005     5.189140937135591        1
2.455                     0.045000000000000005     5.248705429378197        1
2.5649999999999995        0.045000000000000005     5.253814681204291        1
2.675                     0.045000000000000005     5.246105226125486        1
2.785                     0.045000000000000005     5.251057916940171        1
2.8949999999999996        0.045000000000000005     5.175574470740058        1
3.005                     0.045000000000000005     5.25701593983849         1
3.115                     0.045000000000000005     5.2595729015864165       1
3.224999999999999         0.045000000000000005     5.23727337327669         1
3.335                     0.045000000000000005     5.268184327767728        1
3.445                     0.045000000000000005     5.269849134762823        1
3.5549999999999997        0.045000000000000005     5.279162665880664        1
3.6649999999999996        0.045000000000000005     5.282861184902206        1
3.7750000000000004        0.045000000000000005     5.205239624224445        1
3.8850000000000002        0.045000000000000005     5.280768427719355        1
3.995                     0.045000000000000005     5.287037397371527        1
4.105                     0.045000000000000005     5.286186962994302        1
4.214999999999999         0.045000000000000005     5.294747880523656        1
4.324999999999999         0.045000000000000005     5.303308798053008        1
4.435                     0.045000000000000005     5.324192678299456        1
4.544999999999999         0.045000000000000005     5.323008325203228        1
4.655                     0.045000000000000005     5.281282824699879        1
4.765                     0.045000000000000005     5.330660424249789        1
4.875                     0.045000000000000005     5.341501139203755        1
4.984999999999999         0.045000000000000005     5.320970593793973        1
5.095                     0.045000000000000005     5.3514592230153735       1
5.205                     0.045000000000000005     5.355709435778281        1
5.315                     0.045000000000000005     5.373180246358384        1
5.425                     0.045000000000000005     5.381952416419604        1
5.535000000000001         0.045000000000000005     5.3067549457438545       1
5.645                     0.045000000000000005     5.401639872357303        1
5.755                     0.045000000000000005     5.409756106910637        1
5.864999999999999         0.045000000000000005     5.368940613831493        1
5.975                     0.045000000000000005     5.441788384816313        1
6.085                     0.045000000000000005     5.465202167028473        1
6.195                     0.045000000000000005     5.490937788294773        1
6.305                     0.045000000000000005     5.536963241083558        1
6.415                     0.045000000000000005     5.519310616253822        1
6.525                     0.045000000000000005     5.695037800005329        1
6.635000000000001         0.045000000000000005     5.843526620819525        1
6.745                     0.045000000000000005     6.074650107508095        1
6.855                     0.045000000000000005     6.535424489085301        1
6.964999999999999         0.045000000000000005     7.277645088073136        1
7.074999999999999         0.045000000000000005     -2.7710090327223433      1
7.185                     0.045000000000000005     -1.6694955760272112      1
7.294999999999999         0.045000000000000005     -1.0172177599488776      1
7.405                     0.045000000000000005     -0.6964760592176875      1
7.515                     0.045000000000000005     -0.4821771054308575      1
7.625                     0.045000000000000005     -0.35015033368130233     1
7.734999999999999         0.045000000000000005     -0.2896353301798511      1
7.845                     0.045000000000000005     -0.2291203266783993      1
7.954999999999999         0.045000000000000005     -0.18844387149024322     1
8.065                     0.045000000000000005     -0.16334825088738625     1
8.175                     0.045000000000000005     -0.14444428803591955     1
8.285                     0.045000000000000005     -0.12554032518445313     1
8.395                     0.045000000000000005     -0.11326842218828359     1
8.504999999999999         0.045000000000000005     -0.10350942533284024     1
8.615                     0.045000000000000005     -0.0989885422656388      1
8.725                     0.045000000000000005     -0.09446765919843755     1
8.835                     0.045000000000000005     -0.08994677613123614     1
8.945                     0.045000000000000005     -0.08542589306403481     1
-1.9450000000000005       0.135                    -0.0944833926858833      1
-1.8350000000000004       0.135                    -0.09795446949131889     1
-1.7250000000000003       0.135                    -0.10076491220525914     1
-1.6150000000000002       0.135                    -0.106394219267334       1
-1.5050000000000003       0.135                    -0.1120235263294088      1
-1.3950000000000005       0.135                    -0.11765283339148391     1
-1.2850000000000006       0.135                    -0.13572571794559435     1
-1.1750000000000007       0.135                    -0.1559336062388806      1
-1.0650000000000004       0.135                    -0.17614149453216688     1
-0.9550000000000005       0.135                    -0.20487512224060367     1
-0.8450000000000005       0.135                    -0.23371166884932004     1
-0.7350000000000003       0.135                    -0.3070696647527249      1
-0.6250000000000004       0.135                    -0.3790576297144872      1
-0.5150000000000003       0.135                    -0.5175151774371098      1
-0.40500000000000047      0.135                    -0.7274729034504013      1
-0.2950000000000004       0.135                    -1.1135049780407797      1
-0.18500000000000028      0.135                    -1.74879472237658        1
-0.0750000000000004       0.135                    -2.8304735801600174      1
0.0349999999999997        0.135                    7.22043689098561         1
0.1449999999999998        0.135                    6.48460603435547         1
0.25499999999999945       0.135                    6.006973266264436        1
0.36499999999999955       0.135                    5.780607514855614        1
0.4749999999999994        0.135                    5.662076032629969        1
0.5849999999999993        0.135                    5.582552384194524        1
0.6949999999999996        0.135                    5.501458917968497        1
0.8049999999999997        0.135                    5.487804259689511        1
0.915                     0.135                    5.46775628369304         1
1.025                     0.135                    5.4350066256078495       1
1.1349999999999996        0.135                    5.433834391017429        1
1.2449999999999994        0.135                    5.413299284184445        1
1.3549999999999998        0.135                    5.383939748954587        1
1.4649999999999996        0.135                    5.404268217830431        1
1.575                     0.135                    5.389629984363266        1
1.6849999999999998        0.135                    5.390908335280956        1
1.7949999999999993        0.135                    5.3951566740499715       1
1.9049999999999996        0.135                    5.371718647351459        1
2.0149999999999997        0.135                    5.392046797297245        1
2.125                     0.135                    5.366357831571906        1
2.2349999999999994        0.135                    5.382703019259232        1
2.3449999999999998        0.135                    5.3935427272294305       1
2.455                     0.135                    5.375235369741539        1
2.5649999999999995        0.135                    5.360900282667078        1
2.675                     0.135                    5.401142422340191        1
2.785                     0.135                    5.377642461045546        1
2.8949999999999996        0.135                    5.39887874531936         1
3.005                     0.135                    5.388408915738099        1
3.115                     0.135                    5.381224062884166        1
3.224999999999999         0.135                    5.3899139706811106       1
3.335                     0.135                    5.351921794196319        1
3.445                     0.135                    5.38982474624407         1
3.5549999999999997        0.135                    5.393425276260024        1
3.6649999999999996        0.135                    5.400587750544604        1
3.7750000000000004        0.135                    5.428258501027992        1
3.8850000000000002        0.135                    5.422379991322262        1
3.995                     0.135                    5.428648960974432        1
4.105                     0.135                    5.438152227890468        1
4.214999999999999         0.135                    5.425965905523141        1
4.324999999999999         0.135                    5.436244750757442        1
4.435                     0.135                    5.44863391888723         1
4.544999999999999         0.135                    5.42318183995231         1
4.655                     0.135                    5.471467551251808        1
4.765                     0.135                    5.464636770429853        1
4.875                     0.135                    5.452040484305458        1
4.984999999999999         0.135                    5.476903358009934        1
5.095                     0.135                    5.446777266252843        1
5.205                     0.135                    5.501189079672742        1
5.315                     0.135                    5.510467072226685        1
5.425                     0.135                    5.499038354194734        1
5.535000000000001         0.135                    5.532392867451528        1
5.645                     0.135                    5.537314663863747        1
5.755                     0.135                    5.508918360515205        1
5.864999999999999         0.135                    5.566143169494076        1
5.975                     0.135                    5.5538713317662705       1
6.085                     0.135                    5.6127666664092395       1
6.195                     0.135                    5.641829179534549        1
6.305                     0.135                    5.646057567140723        1
6.415                     0.135                    5.728360884427344        1
6.525                     0.135                    5.805585783093312        1
6.635000000000001         0.135                    5.917306639045073        1
6.745                     0.135                    6.163653924661595        1
6.855                     0.135                    6.629404339477222        1
6.964999999999999         0.135                    7.362097973485291        1
7.074999999999999         0.135                    -2.719256939983108       1
7.185                     0.135                    -1.599167613635906       1
7.294999999999999         0.135                    -1.0199641880377772      1
7.405                     0.135                    -0.6716579019118709      1
7.515                     0.135                    -0.47356725199505156     1
7.625                     0.135                    -0.36043910320757444     1
7.734999999999999         0.135                    -0.2810595775212068      1
7.845                     0.135                    -0.22598520962246352     1
7.954999999999999         0.135                    -0.18616810789351979     1
8.065                     0.135                    -0.16083852481594318     1
8.175                     0.135                    -0.14193456196447696     1
8.285                     0.135                    -0.12303059911301117     1
8.395                     0.135                    -0.11281759495733801     1
8.504999999999999         0.135                    -0.10252039459164775     1
8.615                     0.135                    -0.09799951152444644     1
8.725                     0.135                    -0.09347862845724514     1
8.835                     0.135                    -0.08895774539004353     1
8.945                     0.135                    -0.0888274294882681      1
-1.9450000000000005       0.225                    -0.09349196733209147     1
-1.8350000000000004       0.225                    -0.09696304413752704     1
-1.7250000000000003       0.225                    -0.10043412094296267     1
-1.6150000000000002       0.225                    -0.10556688213928135     1
-1.5050000000000003       0.225                    -0.11119618920135618     1
-1.3950000000000005       0.225                    -0.11349563635630316     1
-1.2850000000000006       0.225                    -0.13370352464958946     1
-1.1750000000000007       0.225                    -0.15391141294287614     1
-1.0650000000000004       0.225                    -0.17568099479799465     1
-0.9550000000000005       0.225                    -0.2045175414067107      1
-0.8450000000000005       0.225                    -0.233354088015427       1
-0.7350000000000003       0.225                    -0.29679049660563717     1
-0.6250000000000004       0.225                    -0.38671544130893754     1
-0.5150000000000003       0.225                    -0.5140770167833999      1
-0.40500000000000047      0.225                    -0.6814947023283536      1
-0.2950000000000004       0.225                    -1.060057314386265       1
-0.18500000000000028      0.225                    -1.6433409714854896      1
-0.0750000000000004       0.225                    -2.689135725483222       1
0.0349999999999997        0.225                    7.4306326457062095       1
0.1449999999999998        0.225                    6.671178789008831        1
0.25499999999999945       0.225                    6.27396787257867         1
0.36499999999999955       0.225                    6.061084939540898        1
0.4749999999999994        0.225                    5.908303106364947        1
0.5849999999999993        0.225                    5.774862479331693        1
0.6949999999999996        0.225                    5.7099943262100545       1
0.8049999999999997        0.225                    5.680873232021014        1
0.915                     0.225                    5.660825256024537        1
1.025                     0.225                    5.640777280028065        1
1.1349999999999996        0.225                    5.632750510986661        1
1.2449999999999994        0.225                    5.612215404153675        1
1.3549999999999998        0.225                    5.61670357040218         1
1.4649999999999996        0.225                    5.601571096554969        1
1.575                     0.225                    5.586438622707732        1
1.6849999999999998        0.225                    5.590934971980895        1
1.7949999999999993        0.225                    5.588765011991395        1
1.9049999999999996        0.225                    5.586595052001893        1
2.0149999999999997        0.225                    5.569114284075907        1
2.125                     0.225                    5.536617996864116        1
2.2349999999999994        0.225                    5.584950235772668        1
2.3449999999999998        0.225                    5.597944517323263        1
2.455                     0.225                    5.579637159835375        1
2.5649999999999995        0.225                    5.550348492066149        1
2.675                     0.225                    5.531075042368112        1
2.785                     0.225                    5.57907908020566         1
2.8949999999999996        0.225                    5.622183019898651        1
3.005                     0.225                    5.613313320638487        1
3.115                     0.225                    5.581187920601437        1
3.224999999999999         0.225                    5.630362965153049        1
3.335                     0.225                    5.637988577931825        1
3.445                     0.225                    5.6332976230771          1
3.5549999999999997        0.225                    5.637424860904954        1
3.6649999999999996        0.225                    5.60585063527806         1
3.7750000000000004        0.225                    5.651277377831545        1
3.8850000000000002        0.225                    5.654214405139521        1
3.995                     0.225                    5.639238010046608        1
4.105                     0.225                    5.63145510182868         1
4.214999999999999         0.225                    5.5571839305226325       1
4.324999999999999         0.225                    5.6452303251353815       1
4.435                     0.225                    5.636535497498           1
4.544999999999999         0.225                    5.624486825377126        1
4.655                     0.225                    5.661652277803736        1
4.765                     0.225                    5.6625234789182395       1
4.875                     0.225                    5.655480853240864        1
4.984999999999999         0.225                    5.6775339173949035       1
5.095                     0.225                    5.654502114166959        1
5.205                     0.225                    5.698345119568927        1
5.315                     0.225                    5.712397821062314        1
5.425                     0.225                    5.716098387763141        1
5.535000000000001         0.225                    5.758030789159211        1
5.645                     0.225                    5.734813545740692        1
5.755                     0.225                    5.71275705811313         1
5.864999999999999         0.225                    5.763345725156666        1
5.975                     0.225                    5.773723107148785        1
6.085                     0.225                    5.781844565012253        1
6.195                     0.225                    5.8041085611880305       1
6.305                     0.225                    5.855107835314251        1
6.415                     0.225                    5.937411152600884        1
6.525                     0.225                    6.07396751272681         1
6.635000000000001         0.225                    6.201174007420481        1
6.745                     0.225                    6.430461264376174        1
6.855                     0.225                    6.813718352582901        1
6.964999999999999         0.225                    7.575432284674983        1
7.074999999999999         0.225                    -2.5750523076280945      1
7.185                     0.225                    -1.5757476114025053      1
7.294999999999999         0.225                    -1.0013007419967606      1
7.405                     0.225                    -0.613138236890598       1
7.515                     0.225                    -0.4774785901613212      1
7.625                     0.225                    -0.3643504413738441      1
7.734999999999999         0.225                    -0.26352654775468687     1
7.845                     0.225                    -0.2237094460257426      1
7.954999999999999         0.225                    -0.18389234429679702     1
8.065                     0.225                    -0.15832879874450123     1
8.175                     0.225                    -0.13942483589303445     1
8.285                     0.225                    -0.12340952492031126     1
8.395                     0.225                    -0.11236676772639298     1
8.504999999999999         0.225                    -0.10153136385045575     1
8.615                     0.225                    -0.09701048078325412     1
8.725                     0.225                    -0.09248959771605253     1
8.835                     0.225                    -0.0903965959951401      1
8.945                     0.225                    -0.08779111081288943     1
-1.9450000000000005       0.315                    -0.09250054197829966     1
-1.8350000000000004       0.315                    -0.09597161878373528     1
-1.7250000000000003       0.315                    -0.09944269558917082     1
-1.6150000000000002       0.315                    -0.10291377239460642     1
-1.5050000000000003       0.315                    -0.11036885207330359     1
-1.3950000000000005       0.315                    -0.11147344306029827     1
-1.2850000000000006       0.315                    -0.13168133135358562     1
-1.1750000000000007       0.315                    -0.1464868673553852      1
-1.0650000000000004       0.315                    -0.17532341396410164     1
-0.9550000000000005       0.315                    -0.20415996057281827     1
-0.8450000000000005       0.315                    -0.23299650718153408     1
-0.7350000000000003       0.315                    -0.28651132845854654     1
-0.6250000000000004       0.315                    -0.37438451319170163     1
-0.5150000000000003       0.315                    -0.4887180271698819      1
-0.40500000000000047      0.315                    -0.6456403956652252      1
-0.2950000000000004       0.315                    -0.9675900795772581      1
-0.18500000000000028      0.315                    -1.506087572820645       1
-0.0750000000000004       0.315                    -2.4787832013908684      1
0.0349999999999997        0.315                    7.757418213300383        1
0.1449999999999998        0.315                    7.03811711865994         1
0.25499999999999945       0.315                    6.687048458251873        1
0.36499999999999955       0.315                    6.473438749095447        1
0.4749999999999994        0.315                    6.37623067551846         1
0.5849999999999993        0.315                    6.25934217567686         1
0.6949999999999996        0.315                    6.242006197154882        1
0.8049999999999997        0.315                    6.198656829196649        1
0.915                     0.315                    6.156628865890315        1
1.025                     0.315                    6.094747883858481        1
1.1349999999999996        0.315                    6.110365515164357        1
1.2449999999999994        0.315                    6.122126450372734        1
1.3549999999999998        0.315                    6.086995953697241        1
1.4649999999999996        0.315                    6.106239500898473        1
1.575                     0.315                    6.0738174488600105       1
1.6849999999999998        0.315                    6.039059545709105        1
1.7949999999999993        0.315                    6.086521756303292        1
1.9049999999999996        0.315                    6.051417829405651        1
2.0149999999999997        0.315                    6.095122445671681        1
2.125                     0.315                    6.052997096708914        1
2.2349999999999994        0.315                    6.09272252714843         1
2.3449999999999998        0.315                    6.012174721305328        1
2.455                     0.315                    6.117870988324397        1
2.5649999999999995        0.315                    6.073088120642513        1
2.675                     0.315                    6.095424552914377        1
2.785                     0.315                    6.102876790492392        1
2.8949999999999996        0.315                    6.0650000784414075       1
3.005                     0.315                    6.092465043832717        1
3.115                     0.315                    6.097882966527411        1
3.224999999999999         0.315                    6.088414771959101        1
3.335                     0.315                    6.053354174532679        1
3.445                     0.315                    6.080436178971475        1
3.5549999999999997        0.315                    6.0972899919134615       1
3.6649999999999996        0.315                    6.065206967352658        1
3.7750000000000004        0.315                    6.090370037144607        1
3.8850000000000002        0.315                    6.12199596144173         1
3.995                     0.315                    6.080094910713157        1
4.105                     0.315                    6.177873354307699        1
4.214999999999999         0.315                    6.127927422282806        1
4.324999999999999         0.315                    6.144259947896512        1
4.435                     0.315                    6.138708604515912        1
4.544999999999999         0.315                    6.191556333176674        1
4.655                     0.315                    6.136346754597312        1
4.765                     0.315                    6.20153588101355         1
4.875                     0.315                    6.17312439603558         1
4.984999999999999         0.315                    6.220421811683104        1
5.095                     0.315                    6.233842377756293        1
5.205                     0.315                    6.174338360188791        1
5.315                     0.315                    6.226443494102933        1
5.425                     0.315                    6.206408894888158        1
5.535000000000001         0.315                    6.2190238772019555       1
5.645                     0.315                    6.243141351403702        1
5.755                     0.315                    6.274586499329574        1
5.864999999999999         0.315                    6.291668381161578        1
5.975                     0.315                    6.258223766523711        1
6.085                     0.315                    6.333942987497812        1
6.195                     0.315                    6.330746204989101        1
6.305                     0.315                    6.390115011370308        1
6.415                     0.315                    6.389781604237271        1
6.525                     0.315                    6.4679394207578245       1
6.635000000000001         0.315                    6.599099270526753        1
6.745                     0.315                    6.799641829845513        1