% Model:              sc_magnet.mph
% Version:            COMSOL 6.2.0.415
% Date:               Feb 3 2025, 12:46
% Dimension:          2
% Nodes:              3000
% Expressions:        2
% Description:        Point
% cpl8x                   cpl8y                    Magnetic flux density, x-component Radius
-1.9450000000000005       0.045000000000000005     9.1538148070394E-4       1
-1.8350000000000004       0.045000000000000005     9.1538148070394E-4       1
-1.7250000000000003       0.045000000000000005     9.1538148070394E-4       1
-1.6150000000000002       0.045000000000000005     0.0026058792688423947    1
-1.5050000000000003       0.045000000000000005     0.001451403528003748     1
-1.3950000000000005       0.045000000000000005     0.0016707492637422217    1
-1.2850000000000006       0.045000000000000005     0.0018417302376242625    1
-1.1750000000000007       0.045000000000000005     0.0026304203673438824    1
-1.0650000000000004       0.045000000000000005     0.0026304203673438824    1
-0.9550000000000005       0.045000000000000005     0.004311759282162819     1
-0.8450000000000005       0.045000000000000005     0.004311759282162819     1
-0.7350000000000003       0.045000000000000005     0.005286734090152234     1
-0.6250000000000004       0.045000000000000005     0.005286734090152234     1
-0.5150000000000003       0.045000000000000005     0.008114946331533757     1
-0.40500000000000047      0.045000000000000005     0.008916100588269416     1
-0.2950000000000004       0.045000000000000005     -0.012660411526157878    1
-0.18500000000000028      0.045000000000000005     0.03321635306788015      1
-0.0750000000000004       0.045000000000000005     0.0290933925391767       1
0.0349999999999997        0.045000000000000005     -0.002210818242653234    1
0.1449999999999998        0.045000000000000005     0.034473131133470385     1
0.25499999999999945       0.045000000000000005     0.0344731311334704       1
0.36499999999999955       0.045000000000000005     0.024652329828479504     1
0.4749999999999994        0.045000000000000005     0.03743906553615473      1
0.5849999999999993        0.045000000000000005     0.03743906553615473      1
0.6949999999999996        0.045000000000000005     0.03743906553615473      1
0.8049999999999997        0.045000000000000005     0.034924129094947694     1
0.915                     0.045000000000000005     0.03272588964718012      1
1.025                     0.045000000000000005     0.03272588964718012      1
1.1349999999999996        0.045000000000000005     0.03272588964718012      1
1.2449999999999994        0.045000000000000005     0.033580383053123886     1
1.3549999999999998        0.045000000000000005     0.03511509319119567      1
1.4649999999999996        0.045000000000000005     0.03511509319119567      1
1.575                     0.045000000000000005     0.03511509319119567      1
1.6849999999999998        0.045000000000000005     0.03511509319119567      1
1.7949999999999993        0.045000000000000005     0.05964466183384581      1
1.9049999999999996        0.045000000000000005     0.03371943940356886      1
2.0149999999999997        0.045000000000000005     0.03371943940356886      1
2.125                     0.045000000000000005     0.03371943940356886      1
2.2349999999999994        0.045000000000000005     0.006703436192805293     1
2.3449999999999998        0.045000000000000005     0.03189387561378271      1
2.455                     0.045000000000000005     0.03189387561378271      1
2.5649999999999995        0.045000000000000005     0.03189387561378271      1
2.675                     0.045000000000000005     0.030621310019971454     1
2.785                     0.045000000000000005     0.029795913210229508     1
2.8949999999999996        0.045000000000000005     0.029795913210229508     1
3.005                     0.045000000000000005     0.029795913210229577     1
3.115                     0.045000000000000005     0.02979591321022948      1
3.224999999999999         0.045000000000000005     0.031032983681677034     1
3.335                     0.045000000000000005     0.031032983681677034     1
3.445                     0.045000000000000005     0.031032983681677034     1
3.5549999999999997        0.045000000000000005     0.35918593401575266      1
3.6649999999999996        0.045000000000000005     0.346221258018567        1
3.7750000000000004        0.045000000000000005     0.346221258018567        1
3.8850000000000002        0.045000000000000005     0.346221258018567        1
3.995                     0.045000000000000005     0.346221258018567        1
4.105                     0.045000000000000005     1.0401054914603798       1
4.214999999999999         0.045000000000000005     0.3911709934463038       1
4.324999999999999         0.045000000000000005     0.3911709934463038       1
4.435                     0.045000000000000005     0.3911709934463038       1
4.544999999999999         0.045000000000000005     1.0591534111694116       1
4.655                     0.045000000000000005     0.8403077189954707       1
4.765                     0.045000000000000005     0.8194147085107986       1
4.875                     0.045000000000000005     0.7985216980261252       1
4.984999999999999         0.045000000000000005     0.7776286875414526       1
5.095                     0.045000000000000005     0.3351861897014756       1
5.205                     0.045000000000000005     0.2318662061096124       1
5.315                     0.045000000000000005     0.2318662061096124       1
5.425                     0.045000000000000005     0.2318662061096124       1
5.535000000000001         0.045000000000000005     0.37583327464909466      1
5.645                     0.045000000000000005     0.359511126959133        1
5.755                     0.045000000000000005     0.359511126959133        1
5.864999999999999         0.045000000000000005     0.359511126959133        1
5.975                     0.045000000000000005     0.3274363624556816       1
6.085                     0.045000000000000005     0.4506303228225357       1
6.195                     0.045000000000000005     0.3271833091181714       1
6.305                     0.045000000000000005     0.3271833091181714       1
6.415                     0.045000000000000005     0.3271833091181714       1
6.525                     0.045000000000000005     0.23572418550266472      1
6.635000000000001         0.045000000000000005     0.3433555400121746       1
6.745                     0.045000000000000005     0.3433555400121746       1
6.855                     0.045000000000000005     0.3433555400121746       1
6.964999999999999         0.045000000000000005     0.26705003573309405      1
7.074999999999999         0.045000000000000005     0.02060142870436754      1
7.185                     0.045000000000000005     0.019892622506482605     1
7.294999999999999         0.045000000000000005     0.018549948781552583     1
7.405                     0.045000000000000005     0.011478508978047239     1
7.515                     0.045000000000000005     0.019229123641471446     1
7.625                     0.045000000000000005     0.0045281071478323505    1
7.734999999999999         0.045000000000000005     0.004245612971140039     1
7.845                     0.045000000000000005     0.004245612971140039     1
7.954999999999999         0.045000000000000005     0.004245612971140039     1
8.065                     0.045000000000000005     0.0024693319323216964    1
8.175                     0.045000000000000005     0.001449079414157583     1
8.285                     0.045000000000000005     0.001449079414157583     1
8.395                     0.045000000000000005     0.0016022338022807867    1
8.504999999999999         0.045000000000000005     0.0016291779529205531    1
8.615                     0.045000000000000005     0.0011640035804358784    1
8.725                     0.045000000000000005     7.933050910148634E-4     1
8.835                     0.045000000000000005     7.933050910148634E-4     1
8.945                     0.045000000000000005     7.933050910148634E-4     1
-1.9450000000000005       0.135                    0.002746144442111822     1
-1.8350000000000004       0.135                    0.002746144442111822     1
-1.7250000000000003       0.135                    0.002746144442111822     1
-1.6150000000000002       0.135                    0.004360438422006903     1
-1.5050000000000003       0.135                    -0.0010902629862430263   1
-1.3950000000000005       0.135                    0.0026302702018644207    1
-1.2850000000000006       0.135                    0.006350803389972427     1
-1.1750000000000007       0.135                    0.00789126110203163      1
-1.0650000000000004       0.135                    0.00789126110203163      1
-0.9550000000000005       0.135                    0.010234605824691136     1
-0.8450000000000005       0.135                    0.012935277846488402     1
-0.7350000000000003       0.135                    0.015860202270457036     1
-0.6250000000000004       0.135                    0.021448168599560058     1
-0.5150000000000003       0.135                    0.03817644693600902      1
-0.40500000000000047      0.135                    0.03634366777402054      1
-0.2950000000000004       0.135                    0.035395903427689834     1
-0.18500000000000028      0.135                    0.08791605785028178      1
-0.0750000000000004       0.135                    0.0872801776175301       1
0.0349999999999997        0.135                    0.09829156676788556      1
0.1449999999999998        0.135                    0.10341939340041188      1
0.25499999999999945       0.135                    0.12143031002436389      1
0.36499999999999955       0.135                    0.09455815800745704      1
0.4749999999999994        0.135                    0.12365627246674096      1
0.5849999999999993        0.135                    0.11231719660846423      1
0.6949999999999996        0.135                    0.11231719660846423      1
0.8049999999999997        0.135                    0.12073289775766435      1
0.915                     0.135                    0.1160444624059439       1
1.025                     0.135                    0.09817766894154029      1
1.1349999999999996        0.135                    0.12934155986911486      1
1.2449999999999994        0.135                    0.1379331473827972       1
1.3549999999999998        0.135                    0.12479536069686992      1
1.4649999999999996        0.135                    0.105345279573587        1
1.575                     0.135                    0.105345279573587        1
1.6849999999999998        0.135                    0.12204817989024502      1
1.7949999999999993        0.135                    0.171542731969766        1
1.9049999999999996        0.135                    0.10115831821070662      1
2.0149999999999997        0.135                    0.10115831821070662      1
2.125                     0.135                    0.10115831821070662      1
2.2349999999999994        0.135                    0.09642803529607413      1
2.3449999999999998        0.135                    0.09568162684134807      1
2.455                     0.135                    0.09568162684134807      1
2.5649999999999995        0.135                    0.09568162684134807      1
2.675                     0.135                    0.0919938036591493       1
2.785                     0.135                    0.09098983814938932      1
2.8949999999999996        0.135                    0.08938773963068852      1
3.005                     0.135                    0.08938773963068852      1
3.115                     0.135                    0.09085564919677816      1
3.224999999999999         0.135                    0.09309895104503108      1
3.335                     0.135                    0.09309895104503108      1
3.445                     0.135                    0.09309895104503108      1
3.5549999999999997        0.135                    1.9130573310473675       1
3.6649999999999996        0.135                    1.8952283675445645       1
3.7750000000000004        0.135                    1.038663774055701        1
3.8850000000000002        0.135                    1.038663774055701        1
3.995                     0.135                    1.038663774055701        1
4.105                     0.135                    1.4732569565165257       1
4.214999999999999         0.135                    1.1076333507055112       1
4.324999999999999         0.135                    1.173512980338912        1
4.435                     0.135                    1.173512980338912        1
4.544999999999999         0.135                    1.652658152748193        1
4.655                     0.135                    1.3429959484942215       1
4.765                     0.135                    1.3074941315863464       1
4.875                     0.135                    1.286601121101675        1
4.984999999999999         0.135                    1.3859218253388654       1
5.095                     0.135                    1.6075066842187697       1
5.205                     0.135                    1.4100172997036813       1
5.315                     0.135                    1.3351668306078488       1
5.425                     0.135                    1.260316361512018        1
5.535000000000001         0.135                    1.6200835385967869       1
5.645                     0.135                    0.9853549823551493       1
5.755                     0.135                    1.0785333808773994       1
5.864999999999999         0.135                    1.0785333808773994       1
5.975                     0.135                    0.9689539308633177       1
6.085                     0.135                    1.1347195712225986       1
6.195                     0.135                    0.9802433987811736       1
6.305                     0.135                    0.9815499273545144       1
6.415                     0.135                    1.0437944685937064       1
6.525                     0.135                    1.2749641717487157       1
6.635000000000001         0.135                    0.9827582158474977       1
6.745                     0.135                    1.0300666200365238       1
6.855                     0.135                    1.3546843140369447       1
6.964999999999999         0.135                    1.8557597869286575       1
7.074999999999999         0.135                    0.03160940609162077      1
7.185                     0.135                    0.06019293386620472      1
7.294999999999999         0.135                    0.04528985329561963      1
7.405                     0.135                    0.035589296587443975     1
7.515                     0.135                    0.03371660577427793      1
7.625                     0.135                    0.01273683891342009      1
7.734999999999999         0.135                    0.01273683891342009      1
7.845                     0.135                    0.01273683891342009      1
7.954999999999999         0.135                    0.010576656446900208     1
8.065                     0.135                    0.008199047677003926     1
8.175                     0.135                    0.008694397646007986     1
8.285                     0.135                    0.0043472382424727535    1
8.395                     0.135                    0.004806701406842365     1
8.504999999999999         0.135                    0.003750638294382255     1
8.615                     0.135                    0.0037491033616260383    1
8.725                     0.135                    0.002379915273044597     1
8.835                     0.135                    0.002379915273044597     1
8.945                     0.135                    0.002379915273044597     1
-1.9450000000000005       0.225                    0.004576907403519702     1
-1.8350000000000004       0.225                    0.004576907403519702     1
-1.7250000000000003       0.225                    0.0052955394630025045    1
-1.6150000000000002       0.225                    0.0064259406498478056    1
-1.5050000000000003       0.225                    0.005139577815248375     1
-1.3950000000000005       0.225                    0.007942889520357124     1
-1.2850000000000006       0.225                    0.010746201225465803     1
-1.1750000000000007       0.225                    0.014580409730429013     1
-1.0650000000000004       0.225                    0.013152101836719415     1
-0.9550000000000005       0.225                    0.01705767637448463      1
-0.8450000000000005       0.225                    0.026433670450761504     1
-0.7350000000000003       0.225                    0.031198145714920467     1
-0.6250000000000004       0.225                    0.04078952856436593      1
-0.5150000000000003       0.225                    0.05038091141381196      1
-0.40500000000000047      0.225                    0.06377123495977077      1
-0.2950000000000004       0.225                    0.08691003459056204      1
-0.18500000000000028      0.225                    0.1407341356205466       1
-0.0750000000000004       0.225                    0.2010782894525733       1
0.0349999999999997        0.225                    0.19879395177842224      1
0.1449999999999998        0.225                    0.20059464755266004      1
0.25499999999999945       0.225                    0.1951879613340044       1
0.36499999999999955       0.225                    0.18466899510220547      1
0.4749999999999994        0.225                    0.18718089132493917      1
0.5849999999999993        0.225                    0.18719532768077357      1
0.6949999999999996        0.225                    0.17462064547473843      1
0.8049999999999997        0.225                    0.2125283246183302       1
0.915                     0.225                    0.2078398892666098       1
1.025                     0.225                    0.22510273668510575      1
1.1349999999999996        0.225                    0.22882157630031683      1
1.2449999999999994        0.225                    0.22086503469124374      1
1.3549999999999998        0.225                    0.18550244748368272      1
1.4649999999999996        0.225                    0.17557546595597828      1
1.575                     0.225                    0.17557546595597828      1
1.6849999999999998        0.225                    0.24674098979636971      1
1.7949999999999993        0.225                    0.2500530461879525       1
1.9049999999999996        0.225                    0.16859719701784415      1
2.0149999999999997        0.225                    0.16859719701784415      1
2.125                     0.225                    0.1841504752828902       1
2.2349999999999994        0.225                    0.1861526343993426       1
2.3449999999999998        0.225                    0.18815479351579456      1
2.455                     0.225                    0.1594693780689136       1
2.5649999999999995        0.225                    0.15310655009985735      1
2.675                     0.225                    0.16976381775351615      1
2.785                     0.225                    0.16875985224375617      1
2.8949999999999996        0.225                    0.14897956605114748      1
3.005                     0.225                    0.16265498658859423      1
3.115                     0.225                    0.16873434608881638      1
3.224999999999999         0.225                    0.17481370558903797      1
3.335                     0.225                    0.1551649184083851       1
3.445                     0.225                    0.1551649184083851       1
3.5549999999999997        0.225                    2.1327366757455826       1
3.6649999999999996        0.225                    2.114907712242783        1
3.7750000000000004        0.225                    1.7311062900928351       1
3.8850000000000002        0.225                    1.7311062900928351       1
3.995                     0.225                    1.8892091831544933       1
4.105                     0.225                    1.9064084215726713       1
4.214999999999999         0.225                    1.9236076599908474       1
4.324999999999999         0.225                    1.9558549672315186       1
4.435                     0.225                    2.0351343180876387       1
4.544999999999999         0.225                    1.9727962108685844       1
4.655                     0.225                    1.910458103649527        1
4.765                     0.225                    1.7955735546618963       1
4.875                     0.225                    1.7746805441772222       1
4.984999999999999         0.225                    1.8171478028786958       1
5.095                     0.225                    1.8923361031993864       1
5.205                     0.225                    1.8734982732715117       1
5.315                     0.225                    1.7500566726133786       1
5.425                     0.225                    1.6752062035175475       1
5.535000000000001         0.225                    1.8900233346157926       1
5.645                     0.225                    1.9088099977599842       1
5.755                     0.225                    1.657031094650748        1
5.864999999999999         0.225                    1.6371818122784074       1
5.975                     0.225                    1.7226303636448415       1
6.085                     0.225                    1.6400340858098272       1
6.195                     0.225                    1.5574378079748121       1
6.305                     0.225                    1.570557839742637        1
6.415                     0.225                    1.5098914518070652       1
6.525                     0.225                    1.698670898704127        1
6.635000000000001         0.225                    1.6204557883732589       1
6.745                     0.225                    1.7307404679467984       1
6.855                     0.225                    1.866804723977989        1
6.964999999999999         0.225                    2.0214754350121167       1
7.074999999999999         0.225                    0.10835872466353536      1
7.185                     0.225                    0.1004932452259264       1
7.294999999999999         0.225                    0.05882171409609338      1
7.405                     0.225                    0.06232920110151263      1
7.515                     0.225                    0.047836758115252793     1
7.625                     0.225                    0.03134975307084206      1
7.734999999999999         0.225                    0.02122806485570028      1
7.845                     0.225                    0.018924010188897902     1
7.954999999999999         0.225                    0.016546401419001974     1
8.065                     0.225                    0.014851802472282627     1
8.175                     0.225                    0.01172002081565376      1
8.285                     0.225                    0.008011169011404001     1
8.395                     0.225                    0.008011169011404001     1
8.504999999999999         0.225                    0.005872098635844        1
8.615                     0.225                    0.00534125902010657      1
8.725                     0.225                    0.004496069324848584     1
8.835                     0.225                    0.003966525455074324     1
8.945                     0.225                    0.003966525455074324     1
-1.9450000000000005       0.315                    0.0064076703649275785    1
-1.8350000000000004       0.315                    0.0064076703649275785    1
-1.7250000000000003       0.315                    0.00713735600162492      1
-1.6150000000000002       0.315                    0.007934867695546188     1
-1.5050000000000003       0.315                    0.007871168681613243     1
-1.3950000000000005       0.315                    0.01067448038672214      1
-1.2850000000000006       0.315                    0.013477792091830712     1
-1.1750000000000007       0.315                    0.016281103796939485     1
-1.0650000000000004       0.315                    0.019084415502048264     1
-0.9550000000000005       0.315                    0.018412942571407187     1
-0.8450000000000005       0.315                    0.03535301954796166      1
-0.7350000000000003       0.315                    0.0412759589665162       1
-0.6250000000000004       0.315                    0.05386327805687993      1
-0.5150000000000003       0.315                    0.0664505971472432       1
-0.40500000000000047      0.315                    0.09119880214552278      1
-0.2950000000000004       0.315                    0.1108707027752979       1
-0.18500000000000028      0.315                    0.16469480380528284      1
-0.0750000000000004       0.315                    0.23654504518785757      1
0.0349999999999997        0.315                    0.2594798779619715       1
0.1449999999999998        0.315                    0.2648252737017534       1
0.25499999999999945       0.315                    0.28812470355406106      1
0.36499999999999955       0.315                    0.2741902558301979       1
0.4749999999999994        0.315                    0.28798264424829617      1
0.5849999999999993        0.315                    0.2881017067525945       1
0.6949999999999996        0.315                    0.32829040750276184      1
0.8049999999999997        0.315                    0.3277020581517947       1
0.915                     0.315                    0.32711370880082713      1
1.025                     0.315                    0.3065921286389801       1
1.1349999999999996        0.315                    0.3117534636087633       1
1.2449999999999994        0.315                    0.30379692199969033      1
1.3549999999999998        0.315                    0.2958403803906176       1
1.4649999999999996        0.315                    0.2458056523383696       1
1.575                     0.315                    0.2708727755248842       1
1.6849999999999998        0.315                    0.3252513040145574       1
1.7949999999999993        0.315                    0.3285633604061403       1
1.9049999999999996        0.315                    0.2757354052957568       1
2.0149999999999997        0.315                    0.2360360758249821       1
2.125                     0.315                    0.273875074386158        1
2.2349999999999994        0.315                    0.27587723350261073      1
2.3449999999999998        0.315                    0.277879392619063        1
2.455                     0.315                    0.2232571292964789       1
2.5649999999999995        0.315                    0.24853779735764286      1
2.675                     0.315                    0.2475338318478828       1
2.785                     0.315                    0.24652986633812296      1
2.8949999999999996        0.315                    0.3182053610386499       1
3.005                     0.315                    0.33705441835907457      1
3.115                     0.315                    0.2466130429808543       1
3.224999999999999         0.315                    0.25269240248107594      1
3.335                     0.315                    0.21723088577173888      1
3.445                     0.315                    0.2356893594172925       1
3.5549999999999997        0.315                    2.3524160204438016       1
3.6649999999999996        0.315                    2.3345870569409986       1
3.7750000000000004        0.315                    2.316758093438196        1
3.8850000000000002        0.315                    2.4235488061299693       1
3.995                     0.315                    2.3223606482106405       1
4.105                     0.315                    2.3395598866288165       1
4.214999999999999         0.315                    2.3567591250469926       1
4.324999999999999         0.315                    2.3648141640514604       1
4.435                     0.315                    2.355272376208028        1
4.544999999999999         0.315                    2.292934268988972        1
4.655                     0.315                    2.2305961617699133       1
4.765                     0.315                    2.2836529777374444       1
4.875                     0.315                    2.2627599672527694       1
4.984999999999999         0.315                    2.1960033521078763       1
5.095                     0.315                    2.177165522180001        1
5.205                     0.315                    2.158327692252128        1
5.315                     0.315                    2.1649465146189097       1
5.425                     0.315                    2.1549426935046894       1
5.535000000000001         0.315                    2.147791369410335        1
5.645                     0.315                    2.1355365441757663       1
5.755                     0.315                    2.123281718941196        1
5.864999999999999         0.315                    2.1754115625466954       1
5.975                     0.315                    2.1293633535236096       1
6.085                     0.315                    2.06842204768558         1
6.195                     0.315                    2.0074807418475498       1
6.305                     0.315                    2.007768798282518        1
6.415                     0.315                    2.082684259662229        1
6.525                     0.315                    2.0560631208231728       1
6.635000000000001         0.315                    2.067592190019468        1
6.745                     0.315                    2.176056857105253        1