% Model:              sc_magnet.mph
% Version:            COMSOL 6.2.0.415
% Date:               Feb 3 2025, 12:36
% Dimension:          2
% Nodes:              3000
% Expressions:        2
% Description:        Point
% cpl7x                   cpl7y                    Magnetic flux density, y-component Radius
-1.9450000000000005       0.045000000000000005     -0.08692227291074253     1
-1.8350000000000004       0.045000000000000005     -0.08839304898596426     1
-1.7250000000000003       0.045000000000000005     -0.090467160269222       1
-1.6150000000000002       0.045000000000000005     -0.09714842682156273     1
-1.5050000000000003       0.045000000000000005     -0.10030676831127949     1
-1.3950000000000005       0.045000000000000005     -0.10682100768430763     1
-1.2850000000000006       0.045000000000000005     -0.1133352470573365      1
-1.1750000000000007       0.045000000000000005     -0.13139655651341142     1
-1.0650000000000004       0.045000000000000005     -0.14056784331205902     1
-0.9550000000000005       0.045000000000000005     -0.15944225571442905     1
-0.8450000000000005       0.045000000000000005     -0.17831666811679706     1
-0.7350000000000003       0.045000000000000005     -0.20347380736706167     1
-0.6250000000000004       0.045000000000000005     -0.2257696674838126      1
-0.5150000000000003       0.045000000000000005     -0.24161922682649917     1
-0.40500000000000047      0.045000000000000005     -0.25746878616918906     1
-0.2950000000000004       0.045000000000000005     -0.20934044869863833     1
-0.18500000000000028      0.045000000000000005     -0.028675649176757023    1
-0.0750000000000004       0.045000000000000005     0.42528812617842016      1
0.0349999999999997        0.045000000000000005     2.9538107920306946       1
0.1449999999999998        0.045000000000000005     3.372065386583426        1
0.25499999999999945       0.045000000000000005     3.6621012938788438       1
0.36499999999999955       0.045000000000000005     3.8167375706855893       1
0.4749999999999994        0.045000000000000005     3.8485299676914457       1
0.5849999999999993        0.045000000000000005     3.9135785635296654       1
0.6949999999999996        0.045000000000000005     3.883150228481577        1
0.8049999999999997        0.045000000000000005     3.892844134655556        1
0.915                     0.045000000000000005     3.8804026648728014       1
1.025                     0.045000000000000005     3.8856334091666263       1
1.1349999999999996        0.045000000000000005     3.8845448541175047       1
1.2449999999999994        0.045000000000000005     3.877345413295547        1
1.3549999999999998        0.045000000000000005     3.8816015524566114       1
1.4649999999999996        0.045000000000000005     3.8650909453955458       1
1.575                     0.045000000000000005     3.914213177127565        1
1.6849999999999998        0.045000000000000005     3.867095231699726        1
1.7949999999999993        0.045000000000000005     3.884071406691108        1
1.9049999999999996        0.045000000000000005     3.8633325887785794       1
2.0149999999999997        0.045000000000000005     3.868098851544514        1
2.125                     0.045000000000000005     3.866958980554841        1
2.2349999999999994        0.045000000000000005     3.883991127975379        1
2.3449999999999998        0.045000000000000005     3.8684740076121433       1
2.455                     0.045000000000000005     3.8717716060486564       1
2.5649999999999995        0.045000000000000005     3.8852833853265185       1
2.675                     0.045000000000000005     3.882050877124314        1
2.785                     0.045000000000000005     3.8756055675941146       1
2.8949999999999996        0.045000000000000005     3.8778854377056065       1
3.005                     0.045000000000000005     3.88197347140588         1
3.115                     0.045000000000000005     3.885302610395457        1
3.224999999999999         0.045000000000000005     3.8888043521971216       1
3.335                     0.045000000000000005     3.8877455914998613       1
3.445                     0.045000000000000005     3.928538233840274        1
3.5549999999999997        0.045000000000000005     3.905575779890471        1
3.6649999999999996        0.045000000000000005     3.9039121093356437       1
3.7750000000000004        0.045000000000000005     3.916597569161947        1
3.8850000000000002        0.045000000000000005     3.92091647344287         1
3.995                     0.045000000000000005     3.9304095493667526       1
4.105                     0.045000000000000005     3.917466125172235        1
4.214999999999999         0.045000000000000005     3.934880259096974        1
4.324999999999999         0.045000000000000005     3.9280514268254243       1
4.435                     0.045000000000000005     3.9316902547192303       1
4.544999999999999         0.045000000000000005     3.9453651158613794       1
4.655                     0.045000000000000005     3.9456714567805795       1
4.765                     0.045000000000000005     3.9497906565847027       1
4.875                     0.045000000000000005     3.9619216087835074       1
4.984999999999999         0.045000000000000005     3.968185473552231        1
5.095                     0.045000000000000005     3.9881314417610767       1
5.205                     0.045000000000000005     4.000469179926404        1
5.315                     0.045000000000000005     4.032445526285682        1
5.425                     0.045000000000000005     3.987210302712784        1
5.535000000000001         0.045000000000000005     4.007224568403047        1
5.645                     0.045000000000000005     4.011507075329054        1
5.755                     0.045000000000000005     4.014714344381016        1
5.864999999999999         0.045000000000000005     4.027827335966062        1
5.975                     0.045000000000000005     4.037528217551125        1
6.085                     0.045000000000000005     4.036207107563751        1
6.195                     0.045000000000000005     4.0485917807043545       1
6.305                     0.045000000000000005     4.05686608102038         1
6.415                     0.045000000000000005     4.053070965798498        1
6.525                     0.045000000000000005     4.038892953116145        1
6.635000000000001         0.045000000000000005     3.9750360364737016       1
6.745                     0.045000000000000005     3.8604182486384513       1
6.855                     0.045000000000000005     3.5977255469273297       1
6.964999999999999         0.045000000000000005     3.16699545041548         1
7.074999999999999         0.045000000000000005     0.5567843224729572       1
7.185                     0.045000000000000005     0.01374904629528232      1
7.294999999999999         0.045000000000000005     -0.14007051968961026     1
7.405                     0.045000000000000005     -0.22017928166609835     1
7.515                     0.045000000000000005     -0.22612419885700952     1
7.625                     0.045000000000000005     -0.20421274233047235     1
7.734999999999999         0.045000000000000005     -0.18571913614838098     1
7.845                     0.045000000000000005     -0.16102629991968365     1
7.954999999999999         0.045000000000000005     -0.14559517336624667     1
8.065                     0.045000000000000005     -0.13016404681281057     1
8.175                     0.045000000000000005     -0.11543770544232637     1
8.285                     0.045000000000000005     -0.1139037609094663      1
8.395                     0.045000000000000005     -0.09961535886760432     1
8.504999999999999         0.045000000000000005     -0.09386463765269301     1
8.615                     0.045000000000000005     -0.08847413189735276     1
8.725                     0.045000000000000005     -0.08437657071975929     1
8.835                     0.045000000000000005     -0.08367590541393177     1
8.945                     0.045000000000000005     -0.08124263494038822     1
-1.9450000000000005       0.135                    -0.08659322818194311     1
-1.8350000000000004       0.135                    -0.08806400425716485     1
-1.7250000000000003       0.135                    -0.09027591147595615     1
-1.6150000000000002       0.135                    -0.09657739556572492     1
-1.5050000000000003       0.135                    -0.09935141869330585     1
-1.3950000000000005       0.135                    -0.10586565806633405     1
-1.2850000000000006       0.135                    -0.11524750949712845     1
-1.1750000000000007       0.135                    -0.12943739911524155     1
-1.0650000000000004       0.135                    -0.1376591245185309      1
-0.9550000000000005       0.135                    -0.15746207918798844     1
-0.8450000000000005       0.135                    -0.17178786579474298     1
-0.7350000000000003       0.135                    -0.20015221264103264     1
-0.6250000000000004       0.135                    -0.19574422589994098     1
-0.5150000000000003       0.135                    -0.24177407225560463     1
-0.40500000000000047      0.135                    -0.2427386363002787      1
-0.2950000000000004       0.135                    -0.21352710062061003     1
-0.18500000000000028      0.135                    -0.043258914877963406    1
-0.0750000000000004       0.135                    0.4160948544817611       1
0.0349999999999997        0.135                    2.8826453798426748       1
0.1449999999999998        0.135                    3.3022377057015504       1
0.25499999999999945       0.135                    3.6201016419495566       1
0.36499999999999955       0.135                    3.724580603298021        1
0.4749999999999994        0.135                    3.77346976253466         1
0.5849999999999993        0.135                    3.803029193230066        1
0.6949999999999996        0.135                    3.848505205656073        1
0.8049999999999997        0.135                    3.815517923491085        1
0.915                     0.135                    3.8190563001072833       1
1.025                     0.135                    3.810559462699917        1
1.1349999999999996        0.135                    3.799915248980022        1
1.2449999999999994        0.135                    3.7956510266523904       1
1.3549999999999998        0.135                    3.7937477386447176       1
1.4649999999999996        0.135                    3.797405693379066        1
1.575                     0.135                    3.776319143916938        1
1.6849999999999998        0.135                    3.7936358189578354       1
1.7949999999999993        0.135                    3.7954815311413643       1
1.9049999999999996        0.135                    3.7958681527005345       1
2.0149999999999997        0.135                    3.7899702242352777       1
2.125                     0.135                    3.7948481605516324       1
2.2349999999999994        0.135                    3.8032021630555786       1
2.3449999999999998        0.135                    3.7920229555312814       1
2.455                     0.135                    3.768058087533339        1
2.5649999999999995        0.135                    3.7822515230201232       1
2.675                     0.135                    3.804121167238935        1
2.785                     0.135                    3.810383155003212        1
2.8949999999999996        0.135                    3.7978420015510412       1
3.005                     0.135                    3.8093584591424534       1
3.115                     0.135                    3.812227554993277        1
3.224999999999999         0.135                    3.832134287704659        1
3.335                     0.135                    3.8322105090539367       1
3.445                     0.135                    3.800871406657416        1
3.5549999999999997        0.135                    3.818132403929683        1
3.6649999999999996        0.135                    3.837433980099359        1
3.7750000000000004        0.135                    3.829498407165515        1
3.8850000000000002        0.135                    3.8235446994382873       1
3.995                     0.135                    3.8435360940880736       1
4.105                     0.135                    3.8751926435138233       1
4.214999999999999         0.135                    3.8592111555498914       1
4.324999999999999         0.135                    3.8633335960376343       1
4.435                     0.135                    3.87433492201951         1
4.544999999999999         0.135                    3.8776646569108255       1
4.655                     0.135                    3.8665459795555988       1
4.765                     0.135                    3.880822101711202        1
4.875                     0.135                    3.8523837474107956       1
4.984999999999999         0.135                    3.8719288189961802       1
5.095                     0.135                    3.897060640334484        1
5.205                     0.135                    3.884682462934764        1
5.315                     0.135                    3.8979334859499692       1
5.425                     0.135                    3.915520344087132        1
5.535000000000001         0.135                    3.9253578520018753       1
5.645                     0.135                    3.94593254569632         1
5.755                     0.135                    3.956892000577096        1
5.864999999999999         0.135                    3.9437549533165734       1
5.975                     0.135                    3.965741896162185        1
6.085                     0.135                    3.9680428263679888       1
6.195                     0.135                    3.9796401387413876       1
6.305                     0.135                    3.9770092750355523       1
6.415                     0.135                    3.9842176975558403       1
6.525                     0.135                    3.9599321955104068       1
6.635000000000001         0.135                    3.9462172372802162       1
6.745                     0.135                    3.766858841864375        1
6.855                     0.135                    3.549055178829884        1
6.964999999999999         0.135                    3.073670155364954        1
7.074999999999999         0.135                    0.5058585777750942       1
7.185                     0.135                    0.014585708288841204     1
7.294999999999999         0.135                    -0.16173709045774576     1
7.405                     0.135                    -0.20500693817918814     1
7.515                     0.135                    -0.2225451315523254      1
7.625                     0.135                    -0.20336884321515555     1
7.734999999999999         0.135                    -0.18033014511689793     1
7.845                     0.135                    -0.1592213300119269      1
7.954999999999999         0.135                    -0.1446205934515245      1
8.065                     0.135                    -0.12918946689808855     1
8.175                     0.135                    -0.11398035167152826     1
8.285                     0.135                    -0.11028839736583584     1
8.395                     0.135                    -0.09816673913066856     1
8.504999999999999         0.135                    -0.0926479822513008      1
8.615                     0.135                    -0.08712922537193349     1
8.725                     0.135                    -0.08541122809444929     1
8.835                     0.135                    -0.08332293124738419     1
8.945                     0.135                    -0.08088966077384063     1
-1.9450000000000005       0.225                    -0.08626418345314371     1
-1.8350000000000004       0.225                    -0.08748561881030029     1
-1.7250000000000003       0.225                    -0.09008466268269066     1
-1.6150000000000002       0.225                    -0.09600636430988702     1
-1.5050000000000003       0.225                    -0.09839606907533166     1
-1.3950000000000005       0.225                    -0.10491030844836066     1
-1.2850000000000006       0.225                    -0.11478162847581916     1
-1.1750000000000007       0.225                    -0.125204575904162       1
-1.0650000000000004       0.225                    -0.13874491737447645     1
-0.9550000000000005       0.225                    -0.1530707039812314      1
-0.8450000000000005       0.225                    -0.16931410978025696     1
-0.7350000000000003       0.225                    -0.1968306179150059      1
-0.6250000000000004       0.225                    -0.2243471260497541      1
-0.5150000000000003       0.225                    -0.24742717778843215     1
-0.40500000000000047      0.225                    -0.23649357710687624     1
-0.2950000000000004       0.225                    -0.2282154769616217      1
-0.18500000000000028      0.225                    -0.025864604579041384    1
-0.0750000000000004       0.225                    0.3965050351332646       1
0.0349999999999997        0.225                    2.6778534332518844       1
0.1449999999999998        0.225                    3.1101946640482687       1
0.25499999999999945       0.225                    3.5015317912919066       1
0.36499999999999955       0.225                    3.5499846113333966       1
0.4749999999999994        0.225                    3.5944414927670945       1
0.5849999999999993        0.225                    3.601169767656546        1
0.6949999999999996        0.225                    3.6071255638996265       1
0.8049999999999997        0.225                    3.5804769123556266       1
0.915                     0.225                    3.6332128514195956       1
1.025                     0.225                    3.6552795453981552       1
1.1349999999999996        0.225                    3.5977500369321413       1
1.2449999999999994        0.225                    3.5880156992968226       1
1.3549999999999998        0.225                    3.6178148747576655       1
1.4649999999999996        0.225                    3.6247724401061134       1
1.575                     0.225                    3.6410468286402153       1
1.6849999999999998        0.225                    3.6584138800983594       1
1.7949999999999993        0.225                    3.5990786005635536       1
1.9049999999999996        0.225                    3.6627612821421507       1
2.0149999999999997        0.225                    3.5920288385902364       1
2.125                     0.225                    3.6050289048536825       1
2.2349999999999994        0.225                    3.6542783318963927       1
2.3449999999999998        0.225                    3.5704993907074165       1
2.455                     0.225                    3.6075388564602253       1
2.5649999999999995        0.225                    3.6792196607137306       1
2.675                     0.225                    3.615621083067365        1
2.785                     0.225                    3.650526071814972        1
2.8949999999999996        0.225                    3.6321385473637893       1
3.005                     0.225                    3.63987295539551         1
3.115                     0.225                    3.622862706488783        1
3.224999999999999         0.225                    3.6377480533903075       1
3.335                     0.225                    3.619952601480969        1
3.445                     0.225                    3.6477058473998083       1
3.5549999999999997        0.225                    3.6763307158659835       1
3.6649999999999996        0.225                    3.6391812851253724       1
3.7750000000000004        0.225                    3.6604131440670082       1
3.8850000000000002        0.225                    3.6604724778416284       1
3.995                     0.225                    3.66393731444359         1
4.105                     0.225                    3.691383245490183        1
4.214999999999999         0.225                    3.667620566062832        1
4.324999999999999         0.225                    3.6675556861316103       1
4.435                     0.225                    3.662222422875624        1
4.544999999999999         0.225                    3.721259401335896        1
4.655                     0.225                    3.622326353445054        1
4.765                     0.225                    3.663763779444946        1
4.875                     0.225                    3.696980130707475        1
4.984999999999999         0.225                    3.779555007261638        1
5.095                     0.225                    3.7014497391800676       1
5.205                     0.225                    3.76889574594312         1
5.315                     0.225                    3.717200493975489        1
5.425                     0.225                    3.6934710158589787       1
5.535000000000001         0.225                    3.744298800494817        1
5.645                     0.225                    3.764846255834092        1
5.755                     0.225                    3.755847271742521        1
5.864999999999999         0.225                    3.796157708135426        1
5.975                     0.225                    3.7559421094392675       1
6.085                     0.225                    3.80982478323172         1
6.195                     0.225                    3.823651253316581        1
6.305                     0.225                    3.814341738256486        1
6.415                     0.225                    3.816815533700518        1
6.525                     0.225                    3.79780963275636         1
6.635000000000001         0.225                    3.7514773085029276       1
6.745                     0.225                    3.638416271144372        1
6.855                     0.225                    3.378743057342882        1
6.964999999999999         0.225                    2.934444118317219        1
7.074999999999999         0.225                    0.43139420103638315      1
7.185                     0.225                    0.0427995584635017       1
7.294999999999999         0.225                    -0.15752119565916622     1
7.405                     0.225                    -0.20693033096968438     1
7.515                     0.225                    -0.22161391203782246     1
7.625                     0.225                    -0.19654931901921424     1
7.734999999999999         0.225                    -0.17768512035020279     1
7.845                     0.225                    -0.15733029065636583     1
7.954999999999999         0.225                    -0.14458698363601052     1
8.065                     0.225                    -0.13002029086589423     1
8.175                     0.225                    -0.12004663337492116     1
8.285                     0.225                    -0.1058361629130611      1
8.395                     0.225                    -0.09695008372927638     1
8.504999999999999         0.225                    -0.09143132684990861     1
8.615                     0.225                    -0.08616532262923711     1
8.725                     0.225                    -0.08477419470245809     1
8.835                     0.225                    -0.08302283807640537     1
8.945                     0.225                    -0.08053668660729314     1
-1.9450000000000005       0.315                    -0.0859351387243443      1
-1.8350000000000004       0.315                    -0.08729437001703458     1
-1.7250000000000003       0.315                    -0.0898934138894249      1
-1.6150000000000002       0.315                    -0.0924924577618152      1
-1.5050000000000003       0.315                    -0.09744071945735822     1
-1.3950000000000005       0.315                    -0.10389280002616737     1
-1.2850000000000006       0.315                    -0.11431574745451048     1
-1.1750000000000007       0.315                    -0.12279392000262489     1
-1.0650000000000004       0.315                    -0.14266415287213374     1
-0.9550000000000005       0.315                    -0.14867932877447432     1
-0.8450000000000005       0.315                    -0.16599251505423052     1
-0.7350000000000003       0.315                    -0.1917729644232684      1
-0.6250000000000004       0.315                    -0.21437576819021908     1
-0.5150000000000003       0.315                    -0.2394133644141993      1
-0.40500000000000047      0.315                    -0.25131379391816777     1
-0.2950000000000004       0.315                    -0.20099789160774073     1
-0.18500000000000028      0.315                    -0.044652948145809834    1
-0.0750000000000004       0.315                    0.16392141205726318      1
0.0349999999999997        0.315                    2.29042143322843         1
0.1449999999999998        0.315                    2.8100018212767566       1
0.25499999999999945       0.315                    3.0177779375689715       1
0.36499999999999955       0.315                    3.1347013387947182       1
0.4749999999999994        0.315                    3.3086865528372655       1
0.5849999999999993        0.315                    3.2369636972848586       1
0.6949999999999996        0.315                    3.2935935286442604       1
0.8049999999999997        0.315                    3.1143127707921394       1
0.915                     0.315                    3.2511367151565835       1
1.025                     0.315                    3.245558036046262        1
1.1349999999999996        0.315                    3.1627133324060956       1
1.2449999999999994        0.315                    3.2694265351634626       1
1.3549999999999998        0.315                    3.182505765810898        1
1.4649999999999996        0.315                    3.1569943448188966       1
1.575                     0.315                    3.2134739827698358       1
1.6849999999999998        0.315                    3.1447247657439585       1
1.7949999999999993        0.315                    3.2606502176179655       1
1.9049999999999996        0.315                    3.1983844734574864       1
2.0149999999999997        0.315                    3.2002345811454678       1
2.125                     0.315                    3.157751524665528        1
2.2349999999999994        0.315                    3.194780688390864        1
2.3449999999999998        0.315                    3.1714283705375284       1
2.455                     0.315                    3.2214519205308676       1
2.5649999999999995        0.315                    3.0275670942961206       1
2.675                     0.315                    3.2448632655466927       1
2.785                     0.315                    3.2150788161726798       1
2.8949999999999996        0.315                    3.2580097387273486       1
3.005                     0.315                    3.2047287615660345       1
3.115                     0.315                    3.2872418803508583       1
3.224999999999999         0.315                    3.1881166594849835       1
3.335                     0.315                    3.209453483299733        1
3.445                     0.315                    3.2666482929366105       1
3.5549999999999997        0.315                    3.231728190420945        1
3.6649999999999996        0.315                    3.2530982765354377       1
3.7750000000000004        0.315                    3.2193294270840127       1
3.8850000000000002        0.315                    3.1649559706020725       1
3.995                     0.315                    3.2931575876639227       1
4.105                     0.315                    3.2513420374766384       1
4.214999999999999         0.315                    3.3697479267528996       1
4.324999999999999         0.315                    3.3783443003543567       1
4.435                     0.315                    3.313253085196777        1
4.544999999999999         0.315                    3.2805559592014513       1
4.655                     0.315                    3.3130166317638903       1
4.765                     0.315                    3.293565494399667        1
4.875                     0.315                    3.3387382674230963       1
4.984999999999999         0.315                    3.5726456562875315       1
5.095                     0.315                    3.3169042581529142       1
5.205                     0.315                    3.3137374934482082       1
5.315                     0.315                    3.3520971758815516       1
5.425                     0.315                    3.382348043294172        1
5.535000000000001         0.315                    3.408190056645715        1
5.645                     0.315                    3.3883289648341837       1
5.755                     0.315                    3.3866956830642163       1
5.864999999999999         0.315                    3.4623212612561707       1
5.975                     0.315                    3.4226043284776537       1
6.085                     0.315                    3.391341388545972        1
6.195                     0.315                    3.4228818307178983       1
6.305                     0.315                    3.4078816635808638       1
6.415                     0.315                    3.4456246591221715       1
6.525                     0.315                    3.4610869402996585       1
6.635000000000001         0.315                    3.3796082745139326       1
6.745                     0.315                    3.303018888741276        1