% Model:              sc_magnet.mph
% Version:            COMSOL 6.2.0.415
% Date:               Feb 3 2025, 12:36
% Dimension:          2
% Nodes:              3000
% Expressions:        2
% Description:        Point
% cpl5x                   cpl5y                    Magnetic flux density, z-component Radius
-1.9450000000000005       0.04500000000000001      -0.0029122548647808957   1
-1.8350000000000004       0.04500000000000001      -0.003085770945880112    1
-1.7250000000000003       0.04500000000000001      -0.006976973780466536    1
-1.6150000000000002       0.04500000000000001      -0.010868176615052717    1
-1.5050000000000003       0.04500000000000001      -0.014759379449638968    1
-1.3950000000000005       0.04500000000000001      -0.019663650364368748    1
-1.2850000000000006       0.04500000000000001      -0.023134650702649195    1
-1.1750000000000007       0.04500000000000001      -0.0336156719302691      1
-1.0650000000000004       0.04500000000000001      -0.04409669315788939     1
-0.9550000000000005       0.04500000000000001      -0.05882151243144047     1
-0.8450000000000005       0.04500000000000001      -0.0849065238774433      1
-0.7350000000000003       0.04500000000000001      -0.12276519621561865     1
-0.6250000000000004       0.04500000000000001      -0.17324046279854644     1
-0.5150000000000003       0.04500000000000001      -0.2923395283937982      1
-0.40500000000000047      0.04500000000000001      -0.4514062582190981      1
-0.2950000000000004       0.04500000000000001      -0.7743021131218679      1
-0.18500000000000028      0.04500000000000001      -1.399966032839821       1
-0.0750000000000004       0.04500000000000001      -3.2957148150595215      1
0.0349999999999997        0.04500000000000001      -3.3040200997060536      1
0.1449999999999998        0.04500000000000001      -1.5402364103592845      1
0.25499999999999945       0.04500000000000001      -0.8851004483842395      1
0.36499999999999955       0.04500000000000001      -0.5264055670967105      1
0.4749999999999994        0.04500000000000001      -0.32646999905021445     1
0.5849999999999993        0.04500000000000001      -0.2069424157678379      1
0.6949999999999996        0.04500000000000001      -0.10812611894257085     1
0.8049999999999997        0.04500000000000001      -0.0823452354495508      1
0.915                     0.04500000000000001      -0.09273583421088438     1
1.025                     0.04500000000000001      -0.01906739719097672     1
1.1349999999999996        0.04500000000000001      -0.045418310872872125    1
1.2449999999999994        0.04500000000000001      -0.06537367906866898     1
1.3549999999999998        0.04500000000000001      -0.0028994691361146074   1
1.4649999999999996        0.04500000000000001      -0.019370746182513       1
1.575                     0.04500000000000001      -0.03886470026837063     1
1.6849999999999998        0.04500000000000001      0.0051439907358041825    1
1.7949999999999993        0.04500000000000001      -0.006268458465894744    1
1.9049999999999996        0.04500000000000001      0.02406612795852081      1
2.0149999999999997        0.04500000000000001      0.0028294935723356396    1
2.125                     0.04500000000000001      -0.02492634847494246     1
2.2349999999999994        0.04500000000000001      0.01605927210872332      1
2.3449999999999998        0.04500000000000001      -0.004315882529233095    1
2.455                     0.04500000000000001      0.0088281104879524       1
2.5649999999999995        0.04500000000000001      0.022248379916595784     1
2.675                     0.04500000000000001      -0.005377641064379268    1
2.785                     0.04500000000000001      -0.034881859469741094    1
2.8949999999999996        0.04500000000000001      0.01572761391203634      1
3.005                     0.04500000000000001      -0.018352871504542068    1
3.115                     0.04500000000000001      0.022367884870105548     1
3.224999999999999         0.04500000000000001      -0.004022876970813272    1
3.335                     0.04500000000000001      0.007653517921947017     1
3.445                     0.04500000000000001      0.02606681023139057      1
3.5549999999999997        0.04500000000000001      0.007664831879543144     1
3.6649999999999996        0.04500000000000001      0.03370217234898032      1
3.7750000000000004        0.04500000000000001      0.029496919145085024     1
3.8850000000000002        0.04500000000000001      -0.008895285572209755    1
3.995                     0.04500000000000001      0.025862032143401166     1
4.105                     0.04500000000000001      0.006516077244205221     1
4.214999999999999         0.04500000000000001      -0.013108349339388235    1
4.324999999999999         0.04500000000000001      0.01692374449230649      1
4.435                     0.04500000000000001      0.015654318271068737     1
4.544999999999999         0.04500000000000001      0.002230679776619615     1
4.655                     0.04500000000000001      0.01957436080273056      1
4.765                     0.04500000000000001      -0.016407384971138528    1
4.875                     0.04500000000000001      0.03174409661899946      1
4.984999999999999         0.04500000000000001      0.0043297655035205995    1
5.095                     0.04500000000000001      0.022348232624852082     1
5.205                     0.04500000000000001      0.043587090739546586     1
5.315                     0.04500000000000001      0.02588741901311753      1
5.425                     0.04500000000000001      0.06737614667692554      1
5.535000000000001         0.04500000000000001      0.04760917331930781      1
5.645                     0.04500000000000001      0.01803819827378894      1
5.755                     0.04500000000000001      0.03907031263786914      1
5.864999999999999         0.04500000000000001      0.048491138914784404     1
5.975                     0.04500000000000001      0.06306882817051473      1
6.085                     0.04500000000000001      0.09303084187522859      1
6.195                     0.04500000000000001      0.09365739535396678      1
6.305                     0.04500000000000001      0.1101873210013129       1
6.415                     0.04500000000000001      0.20578187717325724      1
6.525                     0.04500000000000001      0.2884434172306303       1
6.635000000000001         0.04500000000000001      0.5003465380002297       1
6.745                     0.04500000000000001      0.814318930909399        1
6.855                     0.04500000000000001      1.448627073145937        1
6.964999999999999         0.04500000000000001      3.1502213792441935       1
7.074999999999999         0.04500000000000001      3.2109891379487294       1
7.185                     0.04500000000000001      1.2959584734184766       1
7.294999999999999         0.04500000000000001      0.680146119652921        1
7.405                     0.04500000000000001      0.44271261504462345      1
7.515                     0.04500000000000001      0.24680412969140053      1
7.625                     0.04500000000000001      0.15574955640311527      1
7.734999999999999         0.04500000000000001      0.1045166901868112       1
7.845                     0.04500000000000001      0.08162228278126923      1
7.954999999999999         0.04500000000000001      0.05255067750660125      1
8.065                     0.04500000000000001      0.035083612592108675     1
8.175                     0.04500000000000001      0.029143974164977677     1
8.285                     0.04500000000000001      0.023500634472635756     1
8.395                     0.04500000000000001      0.017538890416303774     1
8.504999999999999         0.04500000000000001      0.012792157128659887     1
8.615                     0.04500000000000001      0.009142037043677886     1
8.725                     0.04500000000000001      0.007385137500507677     1
8.835                     0.04500000000000001      0.005521810265069482     1
8.945                     0.04500000000000001      0.002113799420616436     1
-1.9450000000000005       0.13500000000000004      -1.5453506567292968E-4   1
-1.8350000000000004       0.13500000000000004      -0.005341118901532993    1
-1.7250000000000003       0.13500000000000004      -0.007228845140869342    1
-1.6150000000000002       0.13500000000000004      -0.011120047975455474    1
-1.5050000000000003       0.13500000000000004      -0.015011250810041947    1
-1.3950000000000005       0.13500000000000004      -0.019683662110431103    1
-1.2850000000000006       0.13500000000000004      -0.02603429114548289     1
-1.1750000000000007       0.13500000000000004      -0.033725660361297594    1
-1.0650000000000004       0.13500000000000004      -0.044206681588917066    1
-0.9550000000000005       0.13500000000000004      -0.05750817295758156     1
-0.8450000000000005       0.13500000000000004      -0.08539094056064167     1
-0.7350000000000003       0.13500000000000004      -0.1128865884284922      1
-0.6250000000000004       0.13500000000000004      -0.16426465147527197     1
-0.5150000000000003       0.13500000000000004      -0.2696902171598161      1
-0.40500000000000047      0.13500000000000004      -0.4073698220296177      1
-0.2950000000000004       0.13500000000000004      -0.7282681793589307      1
-0.18500000000000028      0.13500000000000004      -1.2719258320321147      1
-0.0750000000000004       0.13500000000000004      -3.0164191528643194      1
0.0349999999999997        0.13500000000000004      -3.2259471634445482      1
0.1449999999999998        0.13500000000000004      -1.5074192786006435      1
0.25499999999999945       0.13500000000000004      -0.8354513490183564      1
0.36499999999999955       0.13500000000000004      -0.47032768854430884     1
0.4749999999999994        0.13500000000000004      -0.3362317035043123      1
0.5849999999999993        0.13500000000000004      -0.20317972082451974     1
0.6949999999999996        0.13500000000000004      -0.1310907046481109      1
0.8049999999999997        0.13500000000000004      -0.09189894733068549     1
0.915                     0.13500000000000004      -0.08656447881389617     1
1.025                     0.13500000000000004      -0.05106595783476653     1
1.1349999999999996        0.13500000000000004      -0.03965832977068828     1
1.2449999999999994        0.13500000000000004      -0.01967446824916763     1
1.3549999999999998        0.13500000000000004      -0.03148952424978413     1
1.4649999999999996        0.13500000000000004      -0.015701242502595747    1
1.575                     0.13500000000000004      0.01956538436223365      1
1.6849999999999998        0.13500000000000004      0.014098631073518941     1
1.7949999999999993        0.13500000000000004      -0.020283116193131612    1
1.9049999999999996        0.13500000000000004      0.02169895122775145      1
2.0149999999999997        0.13500000000000004      -9.362883868817562E-4    1
2.125                     0.13500000000000004      -0.02425063814383499     1
2.2349999999999994        0.13500000000000004      0.0021893503195631325    1
2.3449999999999998        0.13500000000000004      -0.006378688563110302    1
2.455                     0.13500000000000004      0.013526665216094136     1
2.5649999999999995        0.13500000000000004      -0.02200632041799988     1
2.675                     0.13500000000000004      0.01007925755392769      1
2.785                     0.13500000000000004      0.005797503557570138     1
2.8949999999999996        0.13500000000000004      0.007888472011124303     1
3.005                     0.13500000000000004      0.011727225547236486     1
3.115                     0.13500000000000004      0.015739022245763873     1
3.224999999999999         0.13500000000000004      0.01204412255784737      1
3.335                     0.13500000000000004      0.006783848754534638     1
3.445                     0.13500000000000004      0.0071108935480985735    1
3.5549999999999997        0.13500000000000004      0.01446840869657251      1
3.6649999999999996        0.13500000000000004      0.013476837865432412     1
3.7750000000000004        0.13500000000000004      0.013714948584491182     1
3.8850000000000002        0.13500000000000004      -0.0018899204175779616   1
3.995                     0.13500000000000004      0.015016378763463428     1
4.105                     0.13500000000000004      1.7989178575167006E-4    1
4.214999999999999         0.13500000000000004      0.0209440173195512       1
4.324999999999999         0.13500000000000004      0.011893409511818942     1
4.435                     0.13500000000000004      0.01094870856242025      1
4.544999999999999         0.13500000000000004      0.01584396850388403      1
4.655                     0.13500000000000004      0.010830041500375476     1
4.765                     0.13500000000000004      0.028710149939659146     1
4.875                     0.13500000000000004      0.018600883103463278     1
4.984999999999999         0.13500000000000004      0.02716499039408493      1
5.095                     0.13500000000000004      0.005580584196296867     1
5.205                     0.13500000000000004      0.027673637336720014     1
5.315                     0.13500000000000004      0.02997331553337701      1
5.425                     0.13500000000000004      0.030230925179616952     1
5.535000000000001         0.13500000000000004      0.03756248266782025      1
5.645                     0.13500000000000004      0.028413026901064953     1
5.755                     0.13500000000000004      0.03260413547215002      1
5.864999999999999         0.13500000000000004      0.04866696882715932      1
5.975                     0.13500000000000004      0.06543093913402098      1
6.085                     0.13500000000000004      0.08194266602921407      1
6.195                     0.13500000000000004      0.09399852079986104      1
6.305                     0.13500000000000004      0.13056831689464854      1
6.415                     0.13500000000000004      0.18600201869281108      1
6.525                     0.13500000000000004      0.31880792374408407      1
6.635000000000001         0.13500000000000004      0.43273829578263984      1
6.745                     0.13500000000000004      0.784059481580222        1
6.855                     0.13500000000000004      1.4345431621663023       1
6.964999999999999         0.13500000000000004      3.1296308360463083       1
7.074999999999999         0.13500000000000004      3.234091262179753        1
7.185                     0.13500000000000004      1.2150355348777788       1
7.294999999999999         0.13500000000000004      0.6879402877044942       1
7.405                     0.13500000000000004      0.4085114669973695       1
7.515                     0.13500000000000004      0.24472732674228165      1
7.625                     0.13500000000000004      0.15574920242691093      1
7.734999999999999         0.13500000000000004      0.0983350462938086       1
7.845                     0.13500000000000004      0.07596029124200734      1
7.954999999999999         0.13500000000000004      0.04834508723137698      1
8.065                     0.13500000000000004      0.036452498698312796     1
8.175                     0.13500000000000004      0.028127933974242035     1
8.285                     0.13500000000000004      0.022322992337133085     1
8.395                     0.13500000000000004      0.01815447187857591      1
8.504999999999999         0.13500000000000004      0.013407738590932854     1
8.615                     0.13500000000000004      0.00866100530328924      1
8.725                     0.13500000000000004      0.0073650143978149785    1
8.835                     0.13500000000000004      0.00455259387015397      1
8.945                     0.13500000000000004      0.0021137994206164184    1
-1.9450000000000005       0.22500000000000003      -0.0016063760538487654   1
-1.8350000000000004       0.22500000000000003      -0.00461635469450374     1
-1.7250000000000003       0.22500000000000003      -0.0074807165012723414   1
-1.6150000000000002       0.22500000000000003      -0.011371919335858731    1
-1.5050000000000003       0.22500000000000003      -0.015263122170445037    1
-1.3950000000000005       0.22500000000000003      -0.01584370161128023     1
-1.2850000000000006       0.22500000000000003      -0.025149762058291565    1
-1.1750000000000007       0.22500000000000003      -0.033835648792324924    1
-1.0650000000000004       0.22500000000000003      -0.044316670019945464    1
-0.9550000000000005       0.22500000000000003      -0.05619483348372227     1
-0.8450000000000005       0.22500000000000003      -0.08678375034764452     1
-0.7350000000000003       0.22500000000000003      -0.11130612919185956     1
-0.6250000000000004       0.22500000000000003      -0.1552888401519964      1
-0.5150000000000003       0.22500000000000003      -0.24597889772232023     1
-0.40500000000000047      0.22500000000000003      -0.3872399133210378      1
-0.2950000000000004       0.22500000000000003      -0.717698624578885       1
-0.18500000000000028      0.22500000000000003      -1.2192569940256104      1
-0.0750000000000004       0.22500000000000003      -3.101729270719538       1
0.0349999999999997        0.22500000000000003      -3.12795354118677        1
0.1449999999999998        0.22500000000000003      -1.3111789240242695      1
0.25499999999999945       0.22500000000000003      -0.7232103638694938      1
0.36499999999999955       0.22500000000000003      -0.4514276883177608      1
0.4749999999999994        0.22500000000000003      -0.291318465943156       1
0.5849999999999993        0.22500000000000003      -0.2082893373588508      1
0.6949999999999996        0.22500000000000003      -0.11324755900091343     1
0.8049999999999997        0.22500000000000003      -0.10461112642463899     1
0.915                     0.22500000000000003      -0.13539719962020058     1
1.025                     0.22500000000000003      -0.03649128236588339     1
1.1349999999999996        0.22500000000000003      -0.03391276048523295     1
1.2449999999999994        0.22500000000000003      -0.005855311453156542    1
1.3549999999999998        0.22500000000000003      -0.022603563734993948    1
1.4649999999999996        0.22500000000000003      -0.03187159277888796     1
1.575                     0.22500000000000003      -0.004813801273766849    1
1.6849999999999998        0.22500000000000003      -0.027295005200127065    1
1.7949999999999993        0.22500000000000003      0.046882392099294457     1
1.9049999999999996        0.22500000000000003      -0.01938147428674597     1
2.0149999999999997        0.22500000000000003      0.02794955553928169      1
2.125                     0.22500000000000003      0.010248587346639138     1
2.2349999999999994        0.22500000000000003      -0.014183517944052149    1
2.3449999999999998        0.22500000000000003      3.463191622520099E-4     1
2.455                     0.22500000000000003      0.023026411124508428     1
2.5649999999999995        0.22500000000000003      0.013661547218871917     1
2.675                     0.22500000000000003      -0.05963593256984012     1
2.785                     0.22500000000000003      0.036648895871444154     1
2.8949999999999996        0.22500000000000003      0.007451137022268739     1
3.005                     0.22500000000000003      0.0239126005965673       1
3.115                     0.22500000000000003      0.002827209300228617     1
3.224999999999999         0.22500000000000003      0.035657837944512494     1
3.335                     0.22500000000000003      0.012405165519194128     1
3.445                     0.22500000000000003      0.021950696736786846     1
3.5549999999999997        0.22500000000000003      0.051160950019863094     1
3.6649999999999996        0.22500000000000003      -0.03513225842213075     1
3.7750000000000004        0.22500000000000003      0.018262698194360993     1
3.8850000000000002        0.22500000000000003      0.02129976572247827      1
3.995                     0.22500000000000003      0.022588798283119438     1
4.105                     0.22500000000000003      0.03800317825019839      1
4.214999999999999         0.22500000000000003      0.01941956582938742      1
4.324999999999999         0.22500000000000003      0.02304308599286209      1
4.435                     0.22500000000000003      8.044382671537065E-4     1
4.544999999999999         0.22500000000000003      0.018220481309561443     1
4.655                     0.22500000000000003      0.0331674116873788       1
4.765                     0.22500000000000003      0.041630558128219114     1
4.875                     0.22500000000000003      -0.024936884047241037    1
4.984999999999999         0.22500000000000003      0.02052527011992744      1
5.095                     0.22500000000000003      0.04495908944942428      1
5.205                     0.22500000000000003      0.03425756649778933      1
5.315                     0.22500000000000003      0.03760353484475942      1
5.425                     0.22500000000000003      0.026137739851973762     1
5.535000000000001         0.22500000000000003      0.03264549838003106      1
5.645                     0.22500000000000003      -0.0013204604448304735   1
5.755                     0.22500000000000003      0.05328077896127148      1
5.864999999999999         0.22500000000000003      0.05433088287614041      1
5.975                     0.22500000000000003      0.07416250588172835      1
6.085                     0.22500000000000003      0.04192272447731682      1
6.195                     0.22500000000000003      0.10615998589086129      1
6.305                     0.22500000000000003      0.1606707413603754       1
6.415                     0.22500000000000003      0.17725006417733713      1
6.525                     0.22500000000000003      0.2766264963150906       1
6.635000000000001         0.22500000000000003      0.4340364084955892       1
6.745                     0.22500000000000003      0.6861655775622708       1
6.855                     0.22500000000000003      1.3536754182534452       1
6.964999999999999         0.22500000000000003      3.1440932504989707       1
7.074999999999999         0.22500000000000003      3.216581885071225        1
7.185                     0.22500000000000003      1.2453881139878002       1
7.294999999999999         0.22500000000000003      0.6215910747580793       1
7.405                     0.22500000000000003      0.34324276427945505      1
7.515                     0.22500000000000003      0.23906863673018786      1
7.625                     0.22500000000000003      0.14724627335544224      1
7.734999999999999         0.22500000000000003      0.09390239021588126      1
7.845                     0.22500000000000003      0.07029829970274501      1
7.954999999999999         0.22500000000000003      0.049929180274060486     1
8.065                     0.22500000000000003      0.03782138480451607      1
8.175                     0.22500000000000003      0.027111893783507236     1
8.285                     0.22500000000000003      0.022305003222463538     1
8.395                     0.22500000000000003      0.019319617544314438     1
8.504999999999999         0.22500000000000003      0.01402332005320495      1
8.615                     0.22500000000000003      0.006989556733712876     1
8.725                     0.22500000000000003      0.0063957980028993885    1
8.835                     0.22500000000000003      0.003583377475238479     1
8.945                     0.22500000000000003      7.709569475775613E-4     1
-1.9450000000000005       0.31500000000000006      -0.0016063760538487654   1
-1.8350000000000004       0.31500000000000006      -0.00481912816154631     1
-1.7250000000000003       0.31500000000000006      -0.008431200307355266    1
-1.6150000000000002       0.31500000000000006      -0.012124778492392123    1
-1.5050000000000003       0.31500000000000006      -0.014099447434734994    1
-1.3950000000000005       0.31500000000000006      -0.017975566874034926    1
-1.2850000000000006       0.31500000000000006      -0.022475420464712438    1
-1.1750000000000007       0.31500000000000006      -0.033571293418110146    1
-1.0650000000000004       0.31500000000000006      -0.044426658450973266    1
-0.9550000000000005       0.31500000000000006      -0.06068091226679595     1
-0.8450000000000005       0.31500000000000006      -0.07770397169414522     1
-0.7350000000000003       0.31500000000000006      -0.10589705797112037     1
-0.6250000000000004       0.31500000000000006      -0.15066408510243923     1
-0.5150000000000003       0.31500000000000006      -0.23437742028192354     1
-0.40500000000000047      0.31500000000000006      -0.3180907554614149      1
-0.2950000000000004       0.31500000000000006      -0.5733108268951739      1
-0.18500000000000028      0.31500000000000006      -1.0985249328052196      1
-0.0750000000000004       0.31500000000000006      -2.4711877491951526      1
0.0349999999999997        0.31500000000000006      -2.9661955809198943      1
0.1449999999999998        0.31500000000000006      -1.2376536364352004      1
0.25499999999999945       0.31500000000000006      -0.6752810638539253      1
0.36499999999999955       0.31500000000000006      -0.4148618371133992      1
0.4749999999999994        0.31500000000000006      -0.22419254705626201     1
0.5849999999999993        0.31500000000000006      -0.19287843532268312     1
0.6949999999999996        0.31500000000000006      -0.08330064522479663     1
0.8049999999999997        0.31500000000000006      -0.08912450941995331     1
0.915                     0.31500000000000006      -0.10095730682737702     1
1.025                     0.31500000000000006      -0.09378989547653038     1
1.1349999999999996        0.31500000000000006      -0.028887972925879524    1
1.2449999999999994        0.31500000000000006      -0.07874548029311512     1
1.3549999999999998        0.31500000000000006      -0.027732085586009703    1
1.4649999999999996        0.31500000000000006      0.05145720721101377      1
1.575                     0.31500000000000006      -0.03123980533707993     1
1.6849999999999998        0.31500000000000006      0.009898999884221382     1
1.7949999999999993        0.31500000000000006      -0.06834132141124405     1
1.9049999999999996        0.31500000000000006      -0.0023000248328557404   1
2.0149999999999997        0.31500000000000006      -0.024552253891922504    1
2.125                     0.31500000000000006      -0.03758422266798789     1
2.2349999999999994        0.31500000000000006      0.05581545032663593      1
2.3449999999999998        0.31500000000000006      -0.013483379986514166    1
2.455                     0.31500000000000006      -0.015648524885832682    1
2.5649999999999995        0.31500000000000006      -0.015394610491192395    1
2.675                     0.31500000000000006      -0.032270294808801836    1
2.785                     0.31500000000000006      -0.027886097315935388    1
2.8949999999999996        0.31500000000000006      -0.05460492111328463     1
3.005                     0.31500000000000006      -0.1757840999207998      1
3.115                     0.31500000000000006      0.013127135725846895     1
3.224999999999999         0.31500000000000006      0.2026315416727184       1
3.335                     0.31500000000000006      -0.006311507703003372    1
3.445                     0.31500000000000006      0.05501605924483144      1
3.5549999999999997        0.31500000000000006      -0.03848862427628319     1
3.6649999999999996        0.31500000000000006      0.03698207160027778      1
3.7750000000000004        0.31500000000000006      -0.0032934609502710543   1
3.8850000000000002        0.31500000000000006      -0.0700038444368829      1
3.995                     0.31500000000000006      0.11999343518651262      1
4.105                     0.31500000000000006      -0.05787129782766787     1
4.214999999999999         0.31500000000000006      0.07282148394432397      1
4.324999999999999         0.31500000000000006      -0.002695768132301879    1
4.435                     0.31500000000000006      0.058134150786033345     1
4.544999999999999         0.31500000000000006      -0.02230936895372082     1
4.655                     0.31500000000000006      0.06519544908545044      1
4.765                     0.31500000000000006      -0.060963850296081645    1
4.875                     0.31500000000000006      0.004359460052867803     1
4.984999999999999         0.31500000000000006      -0.043209194424655095    1
5.095                     0.31500000000000006      0.05481450718798442      1
5.205                     0.31500000000000006      0.02434949199608044      1
5.315                     0.31500000000000006      0.03049736391824512      1
5.425                     0.31500000000000006      0.07045868094051144      1
5.535000000000001         0.31500000000000006      -0.005730710079880907    1
5.645                     0.31500000000000006      0.031213424647191346     1
5.755                     0.31500000000000006      -0.15643792411271562     1
5.864999999999999         0.31500000000000006      0.08127231045459044      1
5.975                     0.31500000000000006      0.06976453025014084      1
6.085                     0.31500000000000006      0.022896744865049        1
6.195                     0.31500000000000006      0.10462261202861178      1
6.305                     0.31500000000000006      0.10531116325228851      1
6.415                     0.31500000000000006      0.14296497883124515      1
6.525                     0.31500000000000006      0.17202931121576004      1
6.635000000000001         0.31500000000000006      0.4242455503752466       1
6.745                     0.31500000000000006      0.8156193619989196       1