% Model:              sc_magnet.mph
% Version:            COMSOL 6.2.0.415
% Date:               Feb 3 2025, 12:35
% Dimension:          2
% Nodes:              3000
% Expressions:        2
% Description:        Point
% cpl5x                   cpl5y                    Magnetic flux density, y-component Radius
-1.9450000000000005       0.04500000000000001      -0.09511710583700406     1
-1.8350000000000004       0.04500000000000001      -0.09187615826324388     1
-1.7250000000000003       0.04500000000000001      -0.09718090921116711     1
-1.6150000000000002       0.04500000000000001      -0.10248566015909003     1
-1.5050000000000003       0.04500000000000001      -0.10779041110701322     1
-1.3950000000000005       0.04500000000000001      -0.1202529577534623      1
-1.2850000000000006       0.04500000000000001      -0.1238540460279215      1
-1.1750000000000007       0.04500000000000001      -0.14562845511298972     1
-1.0650000000000004       0.04500000000000001      -0.1674028641980584      1
-0.9550000000000005       0.04500000000000001      -0.19612788485029242     1
-0.8450000000000005       0.04500000000000001      -0.21500229725266132     1
-0.7350000000000003       0.04500000000000001      -0.27806974699421594     1
-0.6250000000000004       0.04500000000000001      -0.3377369076803053      1
-0.5150000000000003       0.04500000000000001      -0.441334846285685       1
-0.40500000000000047      0.04500000000000001      -0.5782755839926774      1
-0.2950000000000004       0.04500000000000001      -0.7572982903586865      1
-0.18500000000000028      0.04500000000000001      -0.9846795557477765      1
-0.0750000000000004       0.04500000000000001      -1.6280527715733575      1
0.0349999999999997        0.04500000000000001      5.434413334654188        1
0.1449999999999998        0.04500000000000001      5.2000904749478885       1
0.25499999999999945       0.04500000000000001      5.11616708576082         1
0.36499999999999955       0.04500000000000001      5.022058585364375        1
0.4749999999999994        0.04500000000000001      4.960890600568618        1
0.5849999999999993        0.04500000000000001      4.908156648486202        1
0.6949999999999996        0.04500000000000001      4.960149079829964        1
0.8049999999999997        0.04500000000000001      4.845016451227085        1
0.915                     0.04500000000000001      4.8261413199449565       1
1.025                     0.04500000000000001      4.865008220463669        1
1.1349999999999996        0.04500000000000001      4.799018238637451        1
1.2449999999999994        0.04500000000000001      4.848366212677634        1
1.3549999999999998        0.04500000000000001      4.788405793011037        1
1.4649999999999996        0.04500000000000001      4.774539394203014        1
1.575                     0.04500000000000001      4.781129917785607        1
1.6849999999999998        0.04500000000000001      4.769793170177808        1
1.7949999999999993        0.04500000000000001      4.769735297486961        1
1.9049999999999996        0.04500000000000001      4.778703760376339        1
2.0149999999999997        0.04500000000000001      4.763122058060936        1
2.125                     0.04500000000000001      4.774289582400886        1
2.2349999999999994        0.04500000000000001      4.765221144051498        1
2.3449999999999998        0.04500000000000001      4.770562960732458        1
2.455                     0.04500000000000001      4.777156386387523        1
2.5649999999999995        0.04500000000000001      4.776426828141472        1
2.675                     0.04500000000000001      4.77547426955793         1
2.785                     0.04500000000000001      4.7963445972814664       1
2.8949999999999996        0.04500000000000001      4.78359361026167         1
3.005                     0.04500000000000001      4.805942958518581        1
3.115                     0.04500000000000001      4.790717242013925        1
3.224999999999999         0.04500000000000001      4.797232800975145        1
3.335                     0.04500000000000001      4.810642003766198        1
3.445                     0.04500000000000001      4.829233057316989        1
3.5549999999999997        0.04500000000000001      4.803278738244793        1
3.6649999999999996        0.04500000000000001      4.808335870131606        1
3.7750000000000004        0.04500000000000001      4.80704729848264         1
3.8850000000000002        0.04500000000000001      4.815755472046358        1
3.995                     0.04500000000000001      4.810915902190385        1
4.105                     0.04500000000000001      4.82226530134863         1
4.214999999999999         0.04500000000000001      4.85500782195533         1
4.324999999999999         0.04500000000000001      4.848433090925699        1
4.435                     0.04500000000000001      4.840735243620309        1
4.544999999999999         0.04500000000000001      4.850518746869426        1
4.655                     0.04500000000000001      4.852180043044223        1
4.765                     0.04500000000000001      4.905439888300272        1
4.875                     0.04500000000000001      4.866557397302721        1
4.984999999999999         0.04500000000000001      4.899697335176372        1
5.095                     0.04500000000000001      4.889731966662441        1
5.205                     0.04500000000000001      4.900857175967654        1
5.315                     0.04500000000000001      4.893512002532578        1
5.425                     0.04500000000000001      4.959590967996472        1
5.535000000000001         0.04500000000000001      4.911545571128217        1
5.645                     0.04500000000000001      4.920901684961602        1
5.755                     0.04500000000000001      4.932318233940265        1
5.864999999999999         0.04500000000000001      4.944020600278424        1
5.975                     0.04500000000000001      4.963527193688202        1
6.085                     0.04500000000000001      4.9788850779640175       1
6.195                     0.04500000000000001      4.992605815170483        1
6.305                     0.04500000000000001      5.030017378879781        1
6.415                     0.04500000000000001      5.061939978491825        1
6.525                     0.04500000000000001      5.188287146774068        1
6.635000000000001         0.04500000000000001      5.176411255874093        1
6.745                     0.04500000000000001      5.267007380734803        1
6.855                     0.04500000000000001      5.395583151641318        1
6.964999999999999         0.04500000000000001      5.745314894494442        1
7.074999999999999         0.04500000000000001      -1.5082044402927888      1
7.185                     0.04500000000000001      -0.9116791272977194      1
7.294999999999999         0.04500000000000001      -0.6558283907936091      1
7.405                     0.04500000000000001      -0.5202555751723938      1
7.515                     0.04500000000000001      -0.39815443089515556     1
7.625                     0.04500000000000001      -0.312462125825423       1
7.734999999999999         0.04500000000000001      -0.2582693586711766      1
7.845                     0.04500000000000001      -0.20743259052541355     1
7.954999999999999         0.04500000000000001      -0.17994699237300976     1
8.065                     0.04500000000000001      -0.15653189281849939     1
8.175                     0.04500000000000001      -0.13579642331405117     1
8.285                     0.04500000000000001      -0.11689246046258539     1
8.395                     0.04500000000000001      -0.10705804384807399     1
8.504999999999999         0.04500000000000001      -0.10222247748266455     1
8.615                     0.04500000000000001      -0.09617290964312614     1
8.725                     0.04500000000000001      -0.09165202657592464     1
8.835                     0.04500000000000001      -0.08849617750482164     1
8.945                     0.04500000000000001      -0.08706019420421587     1
-1.9450000000000005       0.13500000000000004      -0.09232623770242221     1
-1.8350000000000004       0.13500000000000004      -0.09492528157481245     1
-1.7250000000000003       0.13500000000000004      -0.09660987795532922     1
-1.6150000000000002       0.13500000000000004      -0.10191462890325234     1
-1.5050000000000003       0.13500000000000004      -0.10721937985117547     1
-1.3950000000000005       0.13500000000000004      -0.119297608135489       1
-1.2850000000000006       0.13500000000000004      -0.1283043317745448      1
-1.1750000000000007       0.13500000000000004      -0.14366929771482106     1
-1.0650000000000004       0.13500000000000004      -0.16544370679988984     1
-0.9550000000000005       0.13500000000000004      -0.19321916605676387     1
-0.8450000000000005       0.13500000000000004      -0.2223515997009603      1
-0.7350000000000003       0.13500000000000004      -0.2804887327490144      1
-0.6250000000000004       0.13500000000000004      -0.3193081092724517      1
-0.5150000000000003       0.13500000000000004      -0.4370285927663211      1
-0.40500000000000047      0.13500000000000004      -0.5561042622291835      1
-0.2950000000000004       0.13500000000000004      -0.7405895710669403      1
-0.18500000000000028      0.13500000000000004      -1.042772440817167       1
-0.0750000000000004       0.13500000000000004      -1.6402385307683005      1
0.0349999999999997        0.13500000000000004      5.574178137593543        1
0.1449999999999998        0.13500000000000004      5.230673186992102        1
0.25499999999999945       0.13500000000000004      5.159500880635246        1
0.36499999999999955       0.13500000000000004      5.198999149049897        1
0.4749999999999994        0.13500000000000004      4.995476227569503        1
0.5849999999999993        0.13500000000000004      5.053137875666256        1
0.6949999999999996        0.13500000000000004      4.919003814976553        1
0.8049999999999997        0.13500000000000004      4.8819373815371385       1
0.915                     0.13500000000000004      4.860272423863989        1
1.025                     0.13500000000000004      4.8434748284821305       1
1.1349999999999996        0.13500000000000004      4.834650169916972        1
1.2449999999999994        0.13500000000000004      4.842910519828765        1
1.3549999999999998        0.13500000000000004      4.9349848126971105       1
1.4649999999999996        0.13500000000000004      4.943173085242951        1
1.575                     0.13500000000000004      4.865692313781304        1
1.6849999999999998        0.13500000000000004      4.85372036023876         1
1.7949999999999993        0.13500000000000004      4.932304586796986        1
1.9049999999999996        0.13500000000000004      4.927957214726126        1
2.0149999999999997        0.13500000000000004      4.926649649156944        1
2.125                     0.13500000000000004      4.805440791009526        1
2.2349999999999994        0.13500000000000004      4.801380723552102        1
2.3449999999999998        0.13500000000000004      4.902686672785698        1
2.455                     0.13500000000000004      4.819959654165913        1
2.5649999999999995        0.13500000000000004      4.941391246796102        1
2.675                     0.13500000000000004      4.943856589344472        1
2.785                     0.13500000000000004      4.825397710942583        1
2.8949999999999996        0.13500000000000004      4.8276863088202715       1
3.005                     0.13500000000000004      4.830112636961259        1
3.115                     0.13500000000000004      4.872400118518099        1
3.224999999999999         0.13500000000000004      4.834488099177737        1
3.335                     0.13500000000000004      4.835522983428537        1
3.445                     0.13500000000000004      4.842419111854584        1
3.5549999999999997        0.13500000000000004      4.860427130839703        1
3.6649999999999996        0.13500000000000004      4.864428069792297        1
3.7750000000000004        0.13500000000000004      4.842914461431722        1
3.8850000000000002        0.13500000000000004      4.846468890280951        1
3.995                     0.13500000000000004      4.849926202730308        1
4.105                     0.13500000000000004      4.88995662970637         1
4.214999999999999         0.13500000000000004      4.872790904813762        1
4.324999999999999         0.13500000000000004      4.8763731447499055       1
4.435                     0.13500000000000004      4.885847410354695        1
4.544999999999999         0.13500000000000004      4.888608315093482        1
4.655                     0.13500000000000004      4.898368510159978        1
4.765                     0.13500000000000004      4.9064805251327215       1
4.875                     0.13500000000000004      5.005656804330277        1
4.984999999999999         0.13500000000000004      4.912023645782633        1
5.095                     0.13500000000000004      4.924746898529423        1
5.205                     0.13500000000000004      4.940764576470681        1
5.315                     0.13500000000000004      4.9454379649855245       1
5.425                     0.13500000000000004      4.951819811303615        1
5.535000000000001         0.13500000000000004      4.947088742495872        1
5.645                     0.13500000000000004      4.9532173119742104       1
5.755                     0.13500000000000004      4.977550164674332        1
5.864999999999999         0.13500000000000004      5.071688595606943        1
5.975                     0.13500000000000004      5.009015325397476        1
6.085                     0.13500000000000004      5.010912030134385        1
6.195                     0.13500000000000004      5.0360986414240365       1
6.305                     0.13500000000000004      5.078781750327495        1
6.415                     0.13500000000000004      5.113887531415789        1
6.525                     0.13500000000000004      5.152107323853704        1
6.635000000000001         0.13500000000000004      5.198362142158527        1
6.745                     0.13500000000000004      5.294699589176108        1
6.855                     0.13500000000000004      5.418823075261548        1
6.964999999999999         0.13500000000000004      5.573312044921961        1
7.074999999999999         0.13500000000000004      -1.7498312015091209      1
7.185                     0.13500000000000004      -0.8906410963604277      1
7.294999999999999         0.13500000000000004      -0.6666874716806683      1
7.405                     0.13500000000000004      -0.5086824260951206      1
7.515                     0.13500000000000004      -0.3871552871880336      1
7.625                     0.13500000000000004      -0.30350540669657056     1
7.734999999999999         0.13500000000000004      -0.24639934708154868     1
7.845                     0.13500000000000004      -0.20417899634082654     1
7.954999999999999         0.13500000000000004      -0.17897241245828768     1
8.065                     0.13500000000000004      -0.15305365725533837     1
8.175                     0.13500000000000004      -0.13328669724260833     1
8.285                     0.13500000000000004      -0.11865664291488903     1
8.395                     0.13500000000000004      -0.10611776928980435     1
8.504999999999999         0.13500000000000004      -0.10128220292439558     1
8.615                     0.13500000000000004      -0.09644663655898675     1
8.725                     0.13500000000000004      -0.0908139632297295      1
8.835                     0.13500000000000004      -0.08797300144106568     1
8.945                     0.13500000000000004      -0.08670722003766836     1
-1.9450000000000005       0.22500000000000003      -0.09184804035388139     1
-1.8350000000000004       0.22500000000000003      -0.09473403278154685     1
-1.7250000000000003       0.22500000000000003      -0.09603884669949148     1
-1.6150000000000002       0.22500000000000003      -0.10134359764741446     1
-1.5050000000000003       0.22500000000000003      -0.10664834859533762     1
-1.3950000000000005       0.22500000000000003      -0.11741550332489287     1
-1.2850000000000006       0.22500000000000003      -0.12783845075323597     1
-1.1750000000000007       0.22500000000000003      -0.14171014031665358     1
-1.0650000000000004       0.22500000000000003      -0.16348454940172147     1
-0.9550000000000005       0.22500000000000003      -0.19031044726323532     1
-0.8450000000000005       0.22500000000000003      -0.2282040899174662      1
-0.7350000000000003       0.22500000000000003      -0.2703115132101184      1
-0.6250000000000004       0.22500000000000003      -0.3008793108645994      1
-0.5150000000000003       0.22500000000000003      -0.429586684190739       1
-0.40500000000000047      0.22500000000000003      -0.5428481062669706      1
-0.2950000000000004       0.22500000000000003      -0.6713018171267278      1
-0.18500000000000028      0.22500000000000003      -0.8361124792089523      1
-0.0750000000000004       0.22500000000000003      -1.5446012237613118      1
0.0349999999999997        0.22500000000000003      5.55317309133617         1
0.1449999999999998        0.22500000000000003      5.355219131707393        1
0.25499999999999945       0.22500000000000003      5.199096533232588        1
0.36499999999999955       0.22500000000000003      5.143971055340717        1
0.4749999999999994        0.22500000000000003      5.069875854027562        1
0.5849999999999993        0.22500000000000003      5.02936012497718         1
0.6949999999999996        0.22500000000000003      4.993680784234774        1
0.8049999999999997        0.22500000000000003      4.972200288783326        1
0.915                     0.22500000000000003      4.99394482907143         1
1.025                     0.22500000000000003      4.939080216725277        1
1.1349999999999996        0.22500000000000003      4.97017021968861         1
1.2449999999999994        0.22500000000000003      4.915137275823927        1
1.3549999999999998        0.22500000000000003      4.959287533892951        1
1.4649999999999996        0.22500000000000003      4.902521169044265        1
1.575                     0.22500000000000003      4.925881437624508        1
1.6849999999999998        0.22500000000000003      4.9084411789579185       1
1.7949999999999993        0.22500000000000003      4.926065367105187        1
1.9049999999999996        0.22500000000000003      4.9005513544409          1
2.0149999999999997        0.22500000000000003      4.897229451691747        1
2.125                     0.22500000000000003      4.932034034711428        1
2.2349999999999994        0.22500000000000003      4.892326974992288        1
2.3449999999999998        0.22500000000000003      4.895993037228854        1
2.455                     0.22500000000000003      4.896520012614561        1
2.5649999999999995        0.22500000000000003      4.908181063582752        1
2.675                     0.22500000000000003      4.950313987881301        1
2.785                     0.22500000000000003      4.926493176443964        1
2.8949999999999996        0.22500000000000003      4.909897322045774        1
3.005                     0.22500000000000003      4.904550715523676        1
3.115                     0.22500000000000003      4.907815517391393        1
3.224999999999999         0.22500000000000003      4.912067206357598        1
3.335                     0.22500000000000003      4.9201683115833745       1
3.445                     0.22500000000000003      4.940735744235097        1
3.5549999999999997        0.22500000000000003      4.940126355413437        1
3.6649999999999996        0.22500000000000003      4.963558343675558        1
3.7750000000000004        0.22500000000000003      4.94996751301394         1
3.8850000000000002        0.22500000000000003      4.985731597592482        1
3.995                     0.22500000000000003      4.946263777882813        1
4.105                     0.22500000000000003      4.950726079831078        1
4.214999999999999         0.22500000000000003      4.96677597354619         1
4.324999999999999         0.22500000000000003      4.995725876745571        1
4.435                     0.22500000000000003      4.9957836844805135       1
4.544999999999999         0.22500000000000003      4.99102371299262         1
4.655                     0.22500000000000003      4.985609973232416        1
4.765                     0.22500000000000003      4.981860428138255        1
4.875                     0.22500000000000003      5.008299248779329        1
4.984999999999999         0.22500000000000003      5.0328438195592415       1
5.095                     0.22500000000000003      5.04651118414992         1
5.205                     0.22500000000000003      5.018625122578147        1
5.315                     0.22500000000000003      5.026836547354873        1
5.425                     0.22500000000000003      5.050646482276647        1
5.535000000000001         0.22500000000000003      5.061878090303368        1
5.645                     0.22500000000000003      5.088639630870572        1
5.755                     0.22500000000000003      5.091920882160197        1
5.864999999999999         0.22500000000000003      5.084982856035693        1
5.975                     0.22500000000000003      5.096141111156367        1
6.085                     0.22500000000000003      5.108647917899479        1
6.195                     0.22500000000000003      5.140033829334763        1
6.305                     0.22500000000000003      5.172058425286476        1
6.415                     0.22500000000000003      5.199408704111533        1
6.525                     0.22500000000000003      5.241986821017691        1
6.635000000000001         0.22500000000000003      5.297359600716588        1
6.745                     0.22500000000000003      5.351676754355417        1
6.855                     0.22500000000000003      5.499928257563063        1
6.964999999999999         0.22500000000000003      5.696991906328858        1
7.074999999999999         0.22500000000000003      -1.4855957726540847      1
7.185                     0.22500000000000003      -0.8105873650480113      1
7.294999999999999         0.22500000000000003      -0.6745008773217878      1
7.405                     0.22500000000000003      -0.4899550464527744      1
7.515                     0.22500000000000003      -0.3758800426487748      1
7.625                     0.22500000000000003      -0.285118437648798       1
7.734999999999999         0.22500000000000003      -0.2536549709652216      1
7.845                     0.22500000000000003      -0.2009254021562391      1
7.954999999999999         0.22500000000000003      -0.17310454892647203     1
8.065                     0.22500000000000003      -0.14957542169217908     1
8.175                     0.22500000000000003      -0.13077697117116682     1
8.285                     0.22500000000000003      -0.11820581568394345     1
8.395                     0.22500000000000003      -0.10716305849002511     1
8.504999999999999         0.22500000000000003      -0.10034192836612645     1
8.615                     0.22500000000000003      -0.09654471684590127     1
8.725                     0.22500000000000003      -0.09029078716597363     1
8.835                     0.22500000000000003      -0.08744982537730972     1
8.945                     0.22500000000000003      -0.084608863588646       1
-1.9450000000000005       0.31500000000000006      -0.09087861929021135     1
-1.8350000000000004       0.31500000000000006      -0.09341230338575206     1
-1.7250000000000003       0.31500000000000006      -0.09675847748561853     1
-1.6150000000000002       0.31500000000000006      -0.1010215742591164      1
-1.5050000000000003       0.31500000000000006      -0.10665088132119083     1
-1.3950000000000005       0.31500000000000006      -0.11393979944175514     1
-1.2850000000000006       0.31500000000000006      -0.12654766320528277     1
-1.1750000000000007       0.31500000000000006      -0.13779551716027        1
-1.0650000000000004       0.31500000000000006      -0.16152539200355343     1
-0.9550000000000005       0.31500000000000006      -0.17591944708591756     1
-0.8450000000000005       0.31500000000000006      -0.2237283497275735      1
-0.7350000000000003       0.31500000000000006      -0.2596660873300388      1
-0.6250000000000004       0.31500000000000006      -0.29244657895117543     1
-0.5150000000000003       0.31500000000000006      -0.4004617764056633      1
-0.40500000000000047      0.31500000000000006      -0.508476973860154       1
-0.2950000000000004       0.31500000000000006      -0.6308158202905538      1
-0.18500000000000028      0.31500000000000006      -0.9000583992722464      1
-0.0750000000000004       0.31500000000000006      -1.398054007104328       1
0.0349999999999997        0.31500000000000006      5.799685214861821        1
0.1449999999999998        0.31500000000000006      5.388602151967046        1
0.25499999999999945       0.31500000000000006      5.334464976006071        1
0.36499999999999955       0.31500000000000006      5.240892971278022        1
0.4749999999999994        0.31500000000000006      5.395616708934293        1
0.5849999999999993        0.31500000000000006      5.12172217944498         1
0.6949999999999996        0.31500000000000006      5.217126981740737        1
0.8049999999999997        0.31500000000000006      5.161630096124732        1
0.915                     0.31500000000000006      5.120462599914839        1
1.025                     0.31500000000000006      4.933165101056069        1
1.1349999999999996        0.31500000000000006      5.082936209660332        1
1.2449999999999994        0.31500000000000006      5.001742942851184        1
1.3549999999999998        0.31500000000000006      5.112632628441839        1
1.4649999999999996        0.31500000000000006      5.002696225044664        1
1.575                     0.31500000000000006      5.004406760425363        1
1.6849999999999998        0.31500000000000006      5.014445129935771        1
1.7949999999999993        0.31500000000000006      4.969950188506454        1
1.9049999999999996        0.31500000000000006      5.085056984871752        1
2.0149999999999997        0.31500000000000006      4.9444990348323365       1
2.125                     0.31500000000000006      5.0550756693461665       1
2.2349999999999994        0.31500000000000006      5.009294128291701        1
2.3449999999999998        0.31500000000000006      4.990236253037269        1
2.455                     0.31500000000000006      5.063771055543308        1
2.5649999999999995        0.31500000000000006      5.093463276674534        1
2.675                     0.31500000000000006      5.070528278831841        1
2.785                     0.31500000000000006      5.063287212287854        1
2.8949999999999996        0.31500000000000006      5.083280828857366        1
3.005                     0.31500000000000006      4.807018025850567        1
3.115                     0.31500000000000006      5.212036227644181        1
3.224999999999999         0.31500000000000006      4.870499392858508        1
3.335                     0.31500000000000006      5.084993137308629        1
3.445                     0.31500000000000006      5.082940825785386        1
3.5549999999999997        0.31500000000000006      5.09981919837            1
3.6649999999999996        0.31500000000000006      5.090336194654643        1
3.7750000000000004        0.31500000000000006      5.085345671645641        1
3.8850000000000002        0.31500000000000006      5.101580761562445        1
3.995                     0.31500000000000006      4.9426281031529085       1
4.105                     0.31500000000000006      5.141947904327118        1
4.214999999999999         0.31500000000000006      5.153578642508481        1
4.324999999999999         0.31500000000000006      5.124419133618806        1
4.435                     0.31500000000000006      5.144172182323888        1
4.544999999999999         0.31500000000000006      5.125516115081325        1
4.655                     0.31500000000000006      5.210445317017952        1
4.765                     0.31500000000000006      5.172098540009567        1
4.875                     0.31500000000000006      5.212786423665449        1
4.984999999999999         0.31500000000000006      5.481704791825976        1
5.095                     0.31500000000000006      5.211139191426604        1
5.205                     0.31500000000000006      5.243334723844118        1
5.315                     0.31500000000000006      5.259850347480799        1
5.425                     0.31500000000000006      5.210774568069063        1
5.535000000000001         0.31500000000000006      5.1876225874173105       1
5.645                     0.31500000000000006      5.261913891261328        1
5.755                     0.31500000000000006      5.117398973646971        1
5.864999999999999         0.31500000000000006      5.304988417678417        1
5.975                     0.31500000000000006      5.4161455667870335       1
6.085                     0.31500000000000006      5.329428695286175        1
6.195                     0.31500000000000006      5.330098865042658        1
6.305                     0.31500000000000006      5.389047767863042        1
6.415                     0.31500000000000006      5.432484426903038        1
6.525                     0.31500000000000006      5.407206292222732        1
6.635000000000001         0.31500000000000006      5.482128437667542        1
6.745                     0.31500000000000006      5.433603896772112        1