% Model:              sc_magnet.mph
% Version:            COMSOL 6.2.0.415
% Date:               Feb 3 2025, 12:35
% Dimension:          2
% Nodes:              3000
% Expressions:        2
% Description:        Point
% cpl5x                   cpl5y                    Magnetic flux density, x-component Radius
-1.9450000000000005       0.04500000000000001      5.389165718664261E-4     1
-1.8350000000000004       0.04500000000000001      3.909782041143263E-4     1
-1.7250000000000003       0.04500000000000001      3.909782041143263E-4     1
-1.6150000000000002       0.04500000000000001      3.909782041143263E-4     1
-1.5050000000000003       0.04500000000000001      3.909782041143263E-4     1
-1.3950000000000005       0.04500000000000001      8.401139973220045E-4     1
-1.2850000000000006       0.04500000000000001      0.0010855133173029111    1
-1.1750000000000007       0.04500000000000001      0.0010855133173029111    1
-1.0650000000000004       0.04500000000000001      0.0010855133173029111    1
-0.9550000000000005       0.04500000000000001      0.002416874490522476     1
-0.8450000000000005       0.04500000000000001      0.002416874490522476     1
-0.7350000000000003       0.04500000000000001      0.0025366023611876898    1
-0.6250000000000004       0.04500000000000001      -0.001021496890053708    1
-0.5150000000000003       0.04500000000000001      0.009250305819212823     1
-0.40500000000000047      0.04500000000000001      0.011870373198281214     1
-0.2950000000000004       0.04500000000000001      0.026078524279271598     1
-0.18500000000000028      0.04500000000000001      0.03789199088538808      1
-0.0750000000000004       0.04500000000000001      -0.05207640214556619     1
0.0349999999999997        0.04500000000000001      0.14611440582038782      1
0.1449999999999998        0.04500000000000001      0.062260307882425536     1
0.25499999999999945       0.04500000000000001      0.19812951836950887      1
0.36499999999999955       0.04500000000000001      0.15416648999998195      1
0.4749999999999994        0.04500000000000001      0.22114155130739022      1
0.5849999999999993        0.04500000000000001      0.16302641745423108      1
0.6949999999999996        0.04500000000000001      0.2375237984129397       1
0.8049999999999997        0.04500000000000001      0.16986514369310424      1
0.915                     0.04500000000000001      0.16569136151827202      1
1.025                     0.04500000000000001      0.14105008571874178      1
1.1349999999999996        0.04500000000000001      0.17211983050184765      1
1.2449999999999994        0.04500000000000001      0.22155573738740664      1
1.3549999999999998        0.04500000000000001      0.1720696322624904       1
1.4649999999999996        0.04500000000000001      0.18781890280998703      1
1.575                     0.04500000000000001      0.16737297722222033      1
1.6849999999999998        0.04500000000000001      0.19759448328536422      1
1.7949999999999993        0.04500000000000001      0.17680084462448575      1
1.9049999999999996        0.04500000000000001      0.1675196212475356       1
2.0149999999999997        0.04500000000000001      0.18917866596307498      1
2.125                     0.04500000000000001      0.16501956447380906      1
2.2349999999999994        0.04500000000000001      0.1965201800730639       1
2.3449999999999998        0.04500000000000001      0.17335789085499576      1
2.455                     0.04500000000000001      0.23591081440871875      1
2.5649999999999995        0.04500000000000001      0.17259949895717264      1
2.675                     0.04500000000000001      0.17396064911089093      1
2.785                     0.04500000000000001      0.2214079760816876       1
2.8949999999999996        0.04500000000000001      0.17173885983883025      1
3.005                     0.04500000000000001      0.19289893800180424      1
3.115                     0.04500000000000001      0.1712402569748679       1
3.224999999999999         0.04500000000000001      0.2160259754410987       1
3.335                     0.04500000000000001      0.18813406536861965      1
3.445                     0.04500000000000001      0.18685017008132285      1
3.5549999999999997        0.04500000000000001      0.1694155357571907       1
3.6649999999999996        0.04500000000000001      0.17100182471624858      1
3.7750000000000004        0.04500000000000001      0.17100182471624858      1
3.8850000000000002        0.04500000000000001      0.16620106168966364      1
3.995                     0.04500000000000001      0.19490158360201784      1
4.105                     0.04500000000000001      0.17445706249644055      1
4.214999999999999         0.04500000000000001      0.18366306822928483      1
4.324999999999999         0.04500000000000001      0.19130021719458945      1
4.435                     0.04500000000000001      0.16925221006677882      1
4.544999999999999         0.04500000000000001      0.16925221006677882      1
4.655                     0.04500000000000001      0.1695116606067164       1
4.765                     0.04500000000000001      0.24658077183992083      1
4.875                     0.04500000000000001      0.17082910759017755      1
4.984999999999999         0.04500000000000001      0.17342460600407072      1
5.095                     0.04500000000000001      0.1980945603716202       1
5.205                     0.04500000000000001      0.17688250322480836      1
5.315                     0.04500000000000001      0.17055785926648004      1
5.425                     0.04500000000000001      0.2603659270553218       1
5.535000000000001         0.04500000000000001      0.17101652574501136      1
5.645                     0.04500000000000001      0.1717260052335039       1
5.755                     0.04500000000000001      0.2316574298944314       1
5.864999999999999         0.04500000000000001      0.1691697684467639       1
5.975                     0.04500000000000001      0.2316366538032142       1
6.085                     0.04500000000000001      0.1704096675935567       1
6.195                     0.04500000000000001      0.18014386455016052      1
6.305                     0.04500000000000001      0.16872322617049118      1
6.415                     0.04500000000000001      0.16183166608009625      1
6.525                     0.04500000000000001      0.20397918736224963      1
6.635000000000001         0.04500000000000001      0.15061829240630908      1
6.745                     0.04500000000000001      0.1698613275169274       1
6.855                     0.04500000000000001      0.1035121437791382       1
6.964999999999999         0.04500000000000001      0.15000675103318883      1
7.074999999999999         0.04500000000000001      0.010122857107647043     1
7.185                     0.04500000000000001      0.03640605993889068      1
7.294999999999999         0.04500000000000001      0.014793708491981028     1
7.405                     0.04500000000000001      0.014793708491981028     1
7.515                     0.04500000000000001      0.004964685932963175     1
7.625                     0.04500000000000001      0.0040795169318683655    1
7.734999999999999         0.04500000000000001      0.0013904490153562321    1
7.845                     0.04500000000000001      0.006604009566384572     1
7.954999999999999         0.04500000000000001      0.002563497776288469     1
8.065                     0.04500000000000001      -6.657142442266784E-4    1
8.175                     0.04500000000000001      3.6286940262830747E-4    1
8.285                     0.04500000000000001      3.6286940262830747E-4    1
8.395                     0.04500000000000001      2.67241315248537E-4      1
8.504999999999999         0.04500000000000001      2.67241315248537E-4      1
8.615                     0.04500000000000001      8.521429123143492E-5     1
8.725                     0.04500000000000001      8.521429123143492E-5     1
8.835                     0.04500000000000001      6.659281727830965E-4     1
8.945                     0.04500000000000001      4.205214188704211E-4     1
-1.9450000000000005       0.13500000000000004      2.8950338040201196E-4    1
-1.8350000000000004       0.13500000000000004      1.536225735012664E-4     1
-1.7250000000000003       0.13500000000000004      0.0011729346123429685    1
-1.6150000000000002       0.13500000000000004      0.0011729346123429685    1
-1.5050000000000003       0.13500000000000004      0.0011729346123429685    1
-1.3950000000000005       0.13500000000000004      0.0025203419919660394    1
-1.2850000000000006       0.13500000000000004      -2.2884161831015354E-4   1
-1.1750000000000007       0.13500000000000004      0.0032565399519087317    1
-1.0650000000000004       0.13500000000000004      0.0032565399519087317    1
-0.9550000000000005       0.13500000000000004      0.007250623471567283     1
-0.8450000000000005       0.13500000000000004      0.007609807083563069     1
-0.7350000000000003       0.13500000000000004      0.0027918958833890173    1
-0.6250000000000004       0.13500000000000004      0.010054542076018524     1
-0.5150000000000003       0.13500000000000004      0.029647767179799        1
-0.40500000000000047      0.13500000000000004      0.03766797154109902      1
-0.2950000000000004       0.13500000000000004      0.07408657133426866      1
-0.18500000000000028      0.13500000000000004      0.1367872417866316       1
-0.0750000000000004       0.13500000000000004      0.23148502730195927      1
0.0349999999999997        0.13500000000000004      0.43388968237964676      1
0.1449999999999998        0.13500000000000004      0.5039278035801669       1
0.25499999999999945       0.13500000000000004      0.49141144699700945      1
0.36499999999999955       0.13500000000000004      0.546598061535589        1
0.4749999999999994        0.13500000000000004      0.5870469147772639       1
0.5849999999999993        0.13500000000000004      0.5381958351978544       1
0.6949999999999996        0.13500000000000004      0.6307527010976557       1
0.8049999999999997        0.13500000000000004      0.5397388144152213       1
0.915                     0.13500000000000004      0.5449383315977343       1
1.025                     0.13500000000000004      0.5377832229849777       1
1.1349999999999996        0.13500000000000004      0.5483293863923127       1
1.2449999999999994        0.13500000000000004      0.6365322606002393       1
1.3549999999999998        0.13500000000000004      0.5903031698956206       1
1.4649999999999996        0.13500000000000004      0.6367862001701234       1
1.575                     0.13500000000000004      0.5676332136591749       1
1.6849999999999998        0.13500000000000004      0.5696551915908554       1
1.7949999999999993        0.13500000000000004      0.6348385049960997       1
1.9049999999999996        0.13500000000000004      0.6186371123608153       1
2.0149999999999997        0.13500000000000004      0.6392592802769558       1
2.125                     0.13500000000000004      0.5541054767419791       1
2.2349999999999994        0.13500000000000004      0.5458769400401304       1
2.3449999999999998        0.13500000000000004      0.5619017007827551       1
2.455                     0.13500000000000004      0.6374268495332371       1
2.5649999999999995        0.13500000000000004      0.6331235246896504       1
2.675                     0.13500000000000004      0.6320967973531486       1
2.785                     0.13500000000000004      0.6054153466273962       1
2.8949999999999996        0.13500000000000004      0.6064513553561977       1
3.005                     0.13500000000000004      0.6109360635488162       1
3.115                     0.13500000000000004      0.5566451094971309       1
3.224999999999999         0.13500000000000004      0.6040788848428944       1
3.335                     0.13500000000000004      0.5998226391317505       1
3.445                     0.13500000000000004      0.6080843963327855       1
3.5549999999999997        0.13500000000000004      0.6084343414860935       1
3.6649999999999996        0.13500000000000004      0.6076235228873248       1
3.7750000000000004        0.13500000000000004      0.5508330625117503       1
3.8850000000000002        0.13500000000000004      0.5583918178235484       1
3.995                     0.13500000000000004      0.5441632454436255       1
4.105                     0.13500000000000004      0.5522206265355328       1
4.214999999999999         0.13500000000000004      0.605881898699546        1
4.324999999999999         0.13500000000000004      0.6011592552755423       1
4.435                     0.13500000000000004      0.6073502442385328       1
4.544999999999999         0.13500000000000004      0.6224437225432102       1
4.655                     0.13500000000000004      0.6319259549979139       1
4.765                     0.13500000000000004      0.6404858687453308       1
4.875                     0.13500000000000004      0.5739982901114575       1
4.984999999999999         0.13500000000000004      0.6029955252917392       1
5.095                     0.13500000000000004      0.6116824049144033       1
5.205                     0.13500000000000004      0.6069952018733193       1
5.315                     0.13500000000000004      0.6422316262333658       1
5.425                     0.13500000000000004      0.6280487121485097       1
5.535000000000001         0.13500000000000004      0.5493599531964728       1
5.645                     0.13500000000000004      0.5586520601125287       1
5.755                     0.13500000000000004      0.6243943473298761       1
5.864999999999999         0.13500000000000004      0.5604496199337833       1
5.975                     0.13500000000000004      0.6363768906825649       1
6.085                     0.13500000000000004      0.5453878257609122       1
6.195                     0.13500000000000004      0.5341076034860102       1
6.305                     0.13500000000000004      0.5954990855974156       1
6.415                     0.13500000000000004      0.5842593348484693       1
6.525                     0.13500000000000004      0.5856881679983559       1
6.635000000000001         0.13500000000000004      0.5550119253937817       1
6.745                     0.13500000000000004      0.509349229341808        1
6.855                     0.13500000000000004      0.485587517742637        1
6.964999999999999         0.13500000000000004      0.4322568225863641       1
7.074999999999999         0.13500000000000004      0.2767857627168713       1
7.185                     0.13500000000000004      0.09539066887383285      1
7.294999999999999         0.13500000000000004      0.09478247712077614      1
7.405                     0.13500000000000004      0.04438112547594297      1
7.515                     0.13500000000000004      0.023855909117907304     1
7.625                     0.13500000000000004      0.020229714693946965     1
7.734999999999999         0.13500000000000004      0.004423004939326687     1
7.845                     0.13500000000000004      0.010371033025611404     1
7.954999999999999         0.13500000000000004      0.007690493328865539     1
8.065                     0.13500000000000004      0.0013363868033721693    1
8.175                     0.13500000000000004      0.0010886082078849085    1
8.285                     0.13500000000000004      0.003007061806539424     1
8.395                     0.13500000000000004      8.017239457455971E-4     1
8.504999999999999         0.13500000000000004      8.017239457455971E-4     1
8.615                     0.13500000000000004      8.017239457455971E-4     1
8.725                     0.13500000000000004      -1.443402777013547E-4    1
8.835                     0.13500000000000004      0.001129872913296165     1
8.945                     0.13500000000000004      0.0012615642566112598    1
-1.9450000000000005       0.22500000000000003      8.981134125609011E-4     1
-1.8350000000000004       0.22500000000000003      0.0011354048794168237    1
-1.7250000000000003       0.22500000000000003      0.001954891020571614     1
-1.6150000000000002       0.22500000000000003      0.001954891020571614     1
-1.5050000000000003       0.22500000000000003      0.001954891020571614     1
-1.3950000000000005       0.22500000000000003      -6.631958043238906E-4    1
-1.2850000000000006       0.22500000000000003      0.0015096378134977773    1
-1.1750000000000007       0.22500000000000003      0.005427566586514568     1
-1.0650000000000004       0.22500000000000003      0.005427566586514568     1
-0.9550000000000005       0.22500000000000003      0.012084372452612346     1
-0.8450000000000005       0.22500000000000003      0.015286465396366467     1
-0.7350000000000003       0.22500000000000003      0.015770830235177558     1
-0.6250000000000004       0.22500000000000003      0.021130581042090035     1
-0.5150000000000003       0.22500000000000003      0.04901927890863372      1
-0.40500000000000047      0.22500000000000003      0.029492917705173483     1
-0.2950000000000004       0.22500000000000003      0.11938167425488899      1
-0.18500000000000028      0.22500000000000003      0.21361447720682536      1
-0.0750000000000004       0.22500000000000003      0.34732698262688544      1
0.0349999999999997        0.22500000000000003      0.6815992366903956       1
0.1449999999999998        0.22500000000000003      0.890400859663143        1
0.25499999999999945       0.22500000000000003      0.9895027656546596       1
0.36499999999999955       0.22500000000000003      1.0717729048263678       1
0.4749999999999994        0.22500000000000003      1.0201362487662813       1
0.5849999999999993        0.22500000000000003      1.1915396723236462       1
0.6949999999999996        0.22500000000000003      1.1008162032591748       1
0.8049999999999997        0.22500000000000003      1.1156205523101512       1
0.915                     0.22500000000000003      1.1766630608699096       1
1.025                     0.22500000000000003      1.1369266457526441       1
1.1349999999999996        0.22500000000000003      1.0871644089338082       1
1.2449999999999994        0.22500000000000003      1.1255140484765462       1
1.3549999999999998        0.22500000000000003      1.059113936693795        1
1.4649999999999996        0.22500000000000003      1.1346768145730373       1
1.575                     0.22500000000000003      1.1396250131716386       1
1.6849999999999998        0.22500000000000003      1.1560635141744307       1
1.7949999999999993        0.22500000000000003      1.2227686479399553       1
1.9049999999999996        0.22500000000000003      1.145117891090628        1
2.0149999999999997        0.22500000000000003      1.1156200123683249       1
2.125                     0.22500000000000003      1.0985453823140574       1
2.2349999999999994        0.22500000000000003      1.1224527495325738       1
2.3449999999999998        0.22500000000000003      1.2235171977699486       1
2.455                     0.22500000000000003      1.114081404770067        1
2.5649999999999995        0.22500000000000003      1.134691608437894        1
2.675                     0.22500000000000003      1.1957290991143488       1
2.785                     0.22500000000000003      1.1736997065337675       1
2.8949999999999996        0.22500000000000003      1.1329251719586608       1
3.005                     0.22500000000000003      1.1152358287749493       1
3.115                     0.22500000000000003      1.128442390111804        1
3.224999999999999         0.22500000000000003      1.105169652442953        1
3.335                     0.22500000000000003      1.1297871535810025       1
3.445                     0.22500000000000003      1.1130972677450797       1
3.5549999999999997        0.22500000000000003      1.1884784083423767       1
3.6649999999999996        0.22500000000000003      1.2028519828913637       1
3.7750000000000004        0.22500000000000003      1.1461015478432337       1
3.8850000000000002        0.22500000000000003      1.0850132988360102       1
3.995                     0.22500000000000003      1.1403321007772025       1
4.105                     0.22500000000000003      1.2068926549774304       1
4.214999999999999         0.22500000000000003      1.1370298408775033       1
4.324999999999999         0.22500000000000003      1.1212594557878024       1
4.435                     0.22500000000000003      1.1476586127134023       1
4.544999999999999         0.22500000000000003      1.120189708259798        1
4.655                     0.22500000000000003      1.19679897313886         1
4.765                     0.22500000000000003      1.1192729612595942       1
4.875                     0.22500000000000003      1.1803349995755          1
4.984999999999999         0.22500000000000003      1.12296212880835         1
5.095                     0.22500000000000003      1.1289381308907664       1
5.205                     0.22500000000000003      1.122110555371819        1
5.315                     0.22500000000000003      1.1900355969243064       1
5.425                     0.22500000000000003      1.1311122012015105       1
5.535000000000001         0.22500000000000003      1.1302681954982443       1
5.645                     0.22500000000000003      1.178575862772958        1
5.755                     0.22500000000000003      1.123885598990987        1
5.864999999999999         0.22500000000000003      1.1936334877261139       1
5.975                     0.22500000000000003      1.1203905866843278       1
6.085                     0.22500000000000003      1.1560527167748278       1
6.195                     0.22500000000000003      1.0891095693346937       1
6.305                     0.22500000000000003      1.1404147623856984       1
6.415                     0.22500000000000003      1.0962903036063327       1
6.525                     0.22500000000000003      1.0094673059105563       1
6.635000000000001         0.22500000000000003      1.0363338860543294       1
6.745                     0.22500000000000003      0.9531477047651151       1
6.855                     0.22500000000000003      0.8470929862379322       1
6.964999999999999         0.22500000000000003      0.616530235189894        1
7.074999999999999         0.22500000000000003      0.3277498759807447       1
7.185                     0.22500000000000003      0.20721925507653483      1
7.294999999999999         0.22500000000000003      0.12188441786325122      1
7.405                     0.22500000000000003      0.06363023338719956      1
7.515                     0.22500000000000003      0.04249019666830151      1
7.625                     0.22500000000000003      0.022553348275559715     1
7.734999999999999         0.22500000000000003      0.012096495608877156     1
7.845                     0.22500000000000003      0.014138056484838096     1
7.954999999999999         0.22500000000000003      0.010393226387641896     1
8.065                     0.22500000000000003      0.0033384878509715443    1
8.175                     0.22500000000000003      0.0018143470131415235    1
8.285                     0.22500000000000003      0.0031079809322960145    1
8.395                     0.22500000000000003      0.002640062039791058     1
8.504999999999999         0.22500000000000003      0.0013362065762426711    1
8.615                     0.22500000000000003      0.003841433745300271     1
8.725                     0.22500000000000003      3.1960446281162347E-4    1
8.835                     0.22500000000000003      0.0015938176538092264    1
8.945                     0.22500000000000003      0.002868030844806857     1
-1.9450000000000005       0.31500000000000006      0.0013967626684485979    1
-1.8350000000000004       0.31500000000000006      0.0020224957459072726    1
-1.7250000000000003       0.31500000000000006      0.0030655125780073775    1
-1.6150000000000002       0.31500000000000006      0.0015868400226909801    1
-1.5050000000000003       0.31500000000000006      0.001181315021982366     1
-1.3950000000000005       0.31500000000000006      0.0029080814075762573    1
-1.2850000000000006       0.31500000000000006      0.00434070377849366      1
-1.1750000000000007       0.31500000000000006      0.005420950863126932     1
-1.0650000000000004       0.31500000000000006      0.007598593221120373     1
-0.9550000000000005       0.31500000000000006      0.027781034909342583     1
-0.8450000000000005       0.31500000000000006      0.020181657765788508     1
-0.7350000000000003       0.31500000000000006      0.022809395676360977     1
-0.6250000000000004       0.31500000000000006      0.034422583774988746     1
-0.5150000000000003       0.31500000000000006      0.05821887063611758      1
-0.40500000000000047      0.31500000000000006      0.08201515749724772      1
-0.2950000000000004       0.31500000000000006      0.1927535313885258       1
-0.18500000000000028      0.31500000000000006      0.26710251674010443      1
-0.0750000000000004       0.31500000000000006      0.4035971335192663       1
0.0349999999999997        0.31500000000000006      1.210186234985704        1
0.1449999999999998        0.31500000000000006      1.5498539301653569       1
0.25499999999999945       0.31500000000000006      1.683280925806324        1
0.36499999999999955       0.31500000000000006      1.8034674050503452       1
0.4749999999999994        0.31500000000000006      1.9360989945970708       1
0.5849999999999993        0.31500000000000006      1.8639563903505176       1
0.6949999999999996        0.31500000000000006      1.8287031462534333       1
0.8049999999999997        0.31500000000000006      1.8536659226543577       1
0.915                     0.31500000000000006      1.8931012433540921       1
1.025                     0.31500000000000006      1.8132634177536922       1
1.1349999999999996        0.31500000000000006      1.9072315127976829       1
1.2449999999999994        0.31500000000000006      1.9571947893166501       1
1.3549999999999998        0.31500000000000006      1.8706588192903162       1
1.4649999999999996        0.31500000000000006      1.9017704508136748       1
1.575                     0.31500000000000006      1.9279621328604337       1
1.6849999999999998        0.31500000000000006      1.920893959755718        1
1.7949999999999993        0.31500000000000006      1.9093398444096605       1
1.9049999999999996        0.31500000000000006      1.8858590253294594       1
2.0149999999999997        0.31500000000000006      1.8080221412430433       1
2.125                     0.31500000000000006      1.9025023141021293       1
2.2349999999999994        0.31500000000000006      1.894360082191703        1
2.3449999999999998        0.31500000000000006      1.9166822455095378       1
2.455                     0.31500000000000006      1.8999931507059298       1
2.5649999999999995        0.31500000000000006      1.8948451930769146       1
2.675                     0.31500000000000006      1.9180892935642309       1
2.785                     0.31500000000000006      1.9096750801215236       1
2.8949999999999996        0.31500000000000006      1.8978438831387239       1
3.005                     0.31500000000000006      1.8388394676927007       1
3.115                     0.31500000000000006      1.7856625700816782       1
3.224999999999999         0.31500000000000006      1.8801362917449644       1
3.335                     0.31500000000000006      1.894837154128333        1
3.445                     0.31500000000000006      1.9192699422880257       1
3.5549999999999997        0.31500000000000006      1.9059937030421064       1
3.6649999999999996        0.31500000000000006      1.914123132318622        1
3.7750000000000004        0.31500000000000006      1.927736405231           1
3.8850000000000002        0.31500000000000006      1.886965855847187        1
3.995                     0.31500000000000006      2.243788855309844        1
4.105                     0.31500000000000006      2.0005938251066304       1
4.214999999999999         0.31500000000000006      2.0717408262180994       1
4.324999999999999         0.31500000000000006      1.9170245607785192       1
4.435                     0.31500000000000006      1.9174469493371475       1
4.544999999999999         0.31500000000000006      1.9109464917542756       1
4.655                     0.31500000000000006      1.8051891116985694       1
4.765                     0.31500000000000006      1.950597876192029        1
4.875                     0.31500000000000006      1.8950927047290884       1
4.984999999999999         0.31500000000000006      1.714564640982791        1
5.095                     0.31500000000000006      1.8938667930938209       1
5.205                     0.31500000000000006      1.8119115924272613       1
5.315                     0.31500000000000006      1.8479414534254524       1
5.425                     0.31500000000000006      1.9096375068353284       1
5.535000000000001         0.31500000000000006      1.9198861887555805       1
5.645                     0.31500000000000006      1.9020522067797156       1
5.755                     0.31500000000000006      1.8583295759381855       1
5.864999999999999         0.31500000000000006      1.794944083511485        1
5.975                     0.31500000000000006      1.8066434716015816       1
6.085                     0.31500000000000006      1.8481681667847276       1
6.195                     0.31500000000000006      1.8772057366805734       1
6.305                     0.31500000000000006      1.853498005333308        1
6.415                     0.31500000000000006      1.764980556095212        1
6.525                     0.31500000000000006      1.8647967671513501       1
6.635000000000001         0.31500000000000006      1.7376185852151131       1
6.745                     0.31500000000000006      1.6606675599985437       1