% Model:              sc_magnet.mph
% Version:            COMSOL 6.2.0.415
% Date:               Feb 3 2025, 12:36
% Dimension:          2
% Nodes:              3000
% Expressions:        2
% Description:        Point
% cpl8x                   cpl8y                    Magnetic flux density, z-component Radius
-1.9450000000000005       0.045000000000000005     -0.0029122548647808957   1
-1.8350000000000004       0.045000000000000005     -0.01085899732541137     1
-1.7250000000000003       0.045000000000000005     -0.018098328875685618    1
-1.6150000000000002       0.045000000000000005     -0.027298698173513294    1
-1.5050000000000003       0.045000000000000005     -0.0370200324884552      1
-1.3950000000000005       0.045000000000000005     -0.04788596169733541     1
-1.2850000000000006       0.045000000000000005     -0.06092478031261028     1
-1.1750000000000007       0.045000000000000005     -0.0818359132144736      1
-1.0650000000000004       0.045000000000000005     -0.10863876204811168     1
-0.9550000000000005       0.045000000000000005     -0.13075748268117912     1
-0.8450000000000005       0.045000000000000005     -0.16519315294427692     1
-0.7350000000000003       0.045000000000000005     -0.21195700012885021     1
-0.6250000000000004       0.045000000000000005     -0.2775598487939068      1
-0.5150000000000003       0.045000000000000005     -0.35813948441986565     1
-0.40500000000000047      0.045000000000000005     -0.47216592215104347     1
-0.2950000000000004       0.045000000000000005     -0.5988938297585271      1
-0.18500000000000028      0.045000000000000005     -0.7021216375683768      1
-0.0750000000000004       0.045000000000000005     -0.6900025520174573      1
0.0349999999999997        0.045000000000000005     -0.8877232004504991      1
0.1449999999999998        0.045000000000000005     -1.2139065418500508      1
0.25499999999999945       0.045000000000000005     -1.0881268891796778      1
0.36499999999999955       0.045000000000000005     -0.9889885285141884      1
0.4749999999999994        0.045000000000000005     -0.8160450188834978      1
0.5849999999999993        0.045000000000000005     -0.7056363336030236      1
0.6949999999999996        0.045000000000000005     -0.5764221753858998      1
0.8049999999999997        0.045000000000000005     -0.4323453669546178      1
0.915                     0.045000000000000005     -0.2924583542221981      1
1.025                     0.045000000000000005     -0.20178357802256794     1
1.1349999999999996        0.045000000000000005     -0.1323013945617449      1
1.2449999999999994        0.045000000000000005     -0.09984567045548398     1
1.3549999999999998        0.045000000000000005     -0.0763031680552515      1
1.4649999999999996        0.045000000000000005     -0.08966628714416713     1
1.575                     0.045000000000000005     -0.028435727416248308    1
1.6849999999999998        0.045000000000000005     -0.014290766521686298    1
1.7949999999999993        0.045000000000000005     -0.013244589162180853    1
1.9049999999999996        0.045000000000000005     -0.00962024541612938     1
2.0149999999999997        0.045000000000000005     -0.018221127006119886    1
2.125                     0.045000000000000005     0.006875652340029403     1
2.2349999999999994        0.045000000000000005     0.04782364570230574      1
2.3449999999999998        0.045000000000000005     0.023486366779050805     1
2.455                     0.045000000000000005     0.01156817628286011      1
2.5649999999999995        0.045000000000000005     0.041553304378097344     1
2.675                     0.045000000000000005     0.052071991591291944     1
2.785                     0.045000000000000005     0.06259067880448654      1
2.8949999999999996        0.045000000000000005     0.03823956877081036      1
3.005                     0.045000000000000005     0.09047676197842236      1
3.115                     0.045000000000000005     0.13196870423656648      1
3.224999999999999         0.045000000000000005     0.11975800869675658      1
3.335                     0.045000000000000005     0.09997139264138419      1
3.445                     0.045000000000000005     0.037604193953621814     1
3.5549999999999997        0.045000000000000005     0.12830076308979027      1
3.6649999999999996        0.045000000000000005     0.1270996381830695       1
3.7750000000000004        0.045000000000000005     0.08316972474460882      1
3.8850000000000002        0.045000000000000005     0.07585347264043424      1
3.995                     0.045000000000000005     0.081658747519401        1
4.105                     0.045000000000000005     0.04486400761554954      1
4.214999999999999         0.045000000000000005     0.12192712273382522      1
4.324999999999999         0.045000000000000005     0.11468344095495553      1
4.435                     0.045000000000000005     0.07478102854507096      1
4.544999999999999         0.045000000000000005     0.06795660027599332      1
4.655                     0.045000000000000005     0.1072847165887828       1
4.765                     0.045000000000000005     0.047636722651254404     1
4.875                     0.045000000000000005     0.13494640457801815      1
4.984999999999999         0.045000000000000005     0.085142014936185        1
5.095                     0.045000000000000005     0.14890553773841497      1
5.205                     0.045000000000000005     0.15798598013058088      1
5.315                     0.045000000000000005     0.16508307166166916      1
5.425                     0.045000000000000005     0.17009652776724454      1
5.535000000000001         0.045000000000000005     0.1848790375048418       1
5.645                     0.045000000000000005     0.20570958591177108      1
5.755                     0.045000000000000005     0.17386995857381504      1
5.864999999999999         0.045000000000000005     0.21896351217578092      1
5.975                     0.045000000000000005     0.24892086974340777      1
6.085                     0.045000000000000005     0.2468942909208085       1
6.195                     0.045000000000000005     0.320515922697465        1
6.305                     0.045000000000000005     0.37644852143422486      1
6.415                     0.045000000000000005     0.4545181036617132       1
6.525                     0.045000000000000005     0.5181542413168441       1
6.635000000000001         0.045000000000000005     0.5962311925337944       1
6.745                     0.045000000000000005     0.6407099200801492       1
6.855                     0.045000000000000005     0.6151275794350175       1
6.964999999999999         0.045000000000000005     0.48675109919633996      1
7.074999999999999         0.045000000000000005     0.5364109723071491       1
7.185                     0.045000000000000005     0.5555496975583933       1
7.294999999999999         0.045000000000000005     0.504247601125472        1
7.405                     0.045000000000000005     0.3920536262477316       1
7.515                     0.045000000000000005     0.31766292004776786      1
7.625                     0.045000000000000005     0.25936677551301857      1
7.734999999999999         0.045000000000000005     0.1973882628896898       1
7.845                     0.045000000000000005     0.14675487797439934      1
7.954999999999999         0.045000000000000005     0.11525967740802634      1
8.065                     0.045000000000000005     0.09664320464081055      1
8.175                     0.045000000000000005     0.07416185147833712      1
8.285                     0.045000000000000005     0.056637157315584455     1
8.395                     0.045000000000000005     0.043379377590195056     1
8.504999999999999         0.045000000000000005     0.033699727032831306     1
8.615                     0.045000000000000005     0.0245248549680417       1
8.725                     0.045000000000000005     0.01677982335002194      1
8.835                     0.045000000000000005     0.010174739651084605     1
8.945                     0.045000000000000005     0.0035696559521474006    1
-1.9450000000000005       0.135                    -0.003619665775137118    1
-1.8350000000000004       0.135                    -0.01085899732541137     1
-1.7250000000000003       0.135                    -0.018098328875685618    1
-1.6150000000000002       0.135                    -0.026481180481002224    1
-1.5050000000000003       0.135                    -0.03565267185200002     1
-1.3950000000000005       0.135                    -0.045625460865398634    1
-1.2850000000000006       0.135                    -0.06034947484796853     1
-1.1750000000000007       0.135                    -0.07507348883053797     1
-1.0650000000000004       0.135                    -0.10100712211043361     1
-0.9550000000000005       0.135                    -0.1288550373430055      1
-0.8450000000000005       0.135                    -0.15542563091957806     1
-0.7350000000000003       0.135                    -0.20648555785953454     1
-0.6250000000000004       0.135                    -0.27366998106637586     1
-0.5150000000000003       0.135                    -0.3486696483559657      1
-0.40500000000000047      0.135                    -0.4512833583454081      1
-0.2950000000000004       0.135                    -0.5716725682622709      1
-0.18500000000000028      0.135                    -0.704164038204705       1
-0.0750000000000004       0.135                    -0.8064908074815914      1
0.0349999999999997        0.135                    -0.9303984477556888      1
0.1449999999999998        0.135                    -1.0638035999251305      1
0.25499999999999945       0.135                    -1.077499851486301       1
0.36499999999999955       0.135                    -0.9914528412016494      1
0.4749999999999994        0.135                    -0.8937322320481037      1
0.5849999999999993        0.135                    -0.5500314779346911      1
0.6949999999999996        0.135                    -0.43679182270615113     1
0.8049999999999997        0.135                    -0.4018063922577097      1
0.915                     0.135                    -0.2436772689922108      1
1.025                     0.135                    -0.23546301356488536     1
1.1349999999999996        0.135                    -0.15234140041603927     1
1.2449999999999994        0.135                    -0.24217613253881232     1
1.3549999999999998        0.135                    -0.09369314790433769     1
1.4649999999999996        0.135                    -0.08126719856538855     1
1.575                     0.135                    -0.06114814658507872     1
1.6849999999999998        0.135                    -0.011247699656307564    1
1.7949999999999993        0.135                    -0.019698592926192138    1
1.9049999999999996        0.135                    0.005813682724589597     1
2.0149999999999997        0.135                    0.03040498358932342      1
2.125                     0.135                    0.025429063247954797     1
2.2349999999999994        0.135                    0.04606523450607336      1
2.3449999999999998        0.135                    0.024664821580433705     1
2.455                     0.135                    0.012746631084242344     1
2.5649999999999995        0.135                    0.03927025969030051      1
2.675                     0.135                    0.05313401781560567      1
2.785                     0.135                    0.04523431380511678      1
2.8949999999999996        0.135                    0.058177239090901584     1
3.005                     0.135                    0.1283992634661424       1
3.115                     0.135                    0.12925906481689586      1
3.224999999999999         0.135                    0.1462370678240621       1
3.335                     0.135                    0.15358956557587344      1
3.445                     0.135                    0.10820869819662882      1
3.5549999999999997        0.135                    0.10440684468208311      1
3.6649999999999996        0.135                    0.1377742832797283       1
3.7750000000000004        0.135                    0.08796161960205215      1
3.8850000000000002        0.135                    0.09287002906008612      1
3.995                     0.135                    0.15666329495649062      1
4.105                     0.135                    0.1311211843138862       1
4.214999999999999         0.135                    0.13615833129666477      1
4.324999999999999         0.135                    0.06872636617759831      1
4.435                     0.135                    0.10808306594699502      1
4.544999999999999         0.135                    0.048215621369715966     1
4.655                     0.135                    0.05742176171063798      1
4.765                     0.135                    0.049812044720207505     1
4.875                     0.135                    0.13851320498898698      1
4.984999999999999         0.135                    0.14986260707600518      1
5.095                     0.135                    0.15196255308839657      1
5.205                     0.135                    0.1790514470043152       1
5.315                     0.135                    0.1610247172034618       1
5.425                     0.135                    0.10094098200876545      1
5.535000000000001         0.135                    0.13420849326523943      1
5.645                     0.135                    0.2045669360810618       1
5.755                     0.135                    0.250778333780882        1
5.864999999999999         0.135                    0.22038251560725342      1
5.975                     0.135                    0.23059606564160218      1
6.085                     0.135                    0.27414225698619354      1
6.195                     0.135                    0.2972641323544463       1
6.305                     0.135                    0.3453749777961479       1
6.415                     0.135                    0.4544009769617545       1
6.525                     0.135                    0.5392001363314409       1
6.635000000000001         0.135                    0.6388271872042697       1
6.745                     0.135                    0.6577776363179494       1
6.855                     0.135                    0.6257551593778166       1
6.964999999999999         0.135                    0.49831305476008225      1
7.074999999999999         0.135                    0.5063855279060785       1
7.185                     0.135                    0.5332318729119745       1
7.294999999999999         0.135                    0.4685704137121931       1
7.405                     0.135                    0.38260207185563727      1
7.515                     0.135                    0.30763419905154266      1
7.625                     0.135                    0.24490624125446228      1
7.734999999999999         0.135                    0.19025788179875774      1
7.845                     0.135                    0.14579800024792766      1
7.954999999999999         0.135                    0.11493585620165214      1
8.065                     0.135                    0.09163543102782289      1
8.175                     0.135                    0.07015643903705594      1
8.285                     0.135                    0.05513966280622315      1
8.395                     0.135                    0.042643857308001465     1
8.504999999999999         0.135                    0.032964206750637715     1
8.615                     0.135                    0.024311879108284154     1
8.725                     0.135                    0.016917487284603502     1
8.835                     0.135                    0.010312403585666138     1
8.945                     0.135                    0.0037073198867288975    1
-1.9450000000000005       0.225                    -0.003619665775137118    1
-1.8350000000000004       0.225                    -0.01085899732541137     1
-1.7250000000000003       0.225                    -0.01802804129239169     1
-1.6150000000000002       0.225                    -0.025663662788491352    1
-1.5050000000000003       0.225                    -0.034285311215545206    1
-1.3950000000000005       0.225                    -0.045050155400756416    1
-1.2850000000000006       0.225                    -0.05977416938332611     1
-1.1750000000000007       0.225                    -0.0763818258073391      1
-1.0650000000000004       0.225                    -0.09337548217275612     1
-0.9550000000000005       0.225                    -0.12122339740532785     1
-0.8450000000000005       0.225                    -0.15325852810060037     1
-0.7350000000000003       0.225                    -0.19370175148915786     1
-0.6250000000000004       0.225                    -0.2581520689626332      1
-0.5150000000000003       0.225                    -0.32689096131746886     1
-0.40500000000000047      0.225                    -0.4207593838304979      1
-0.2950000000000004       0.225                    -0.5414471836675472      1
-0.18500000000000028      0.225                    -0.6747275866494244      1
-0.0750000000000004       0.225                    -0.777054355926315       1
0.0349999999999997        0.225                    -0.8697857684253871      1
0.1449999999999998        0.225                    -0.9565204433147408      1
0.25499999999999945       0.225                    -0.9256541144315327      1
0.36499999999999955       0.225                    -0.84110240170269        1
0.4749999999999994        0.225                    -0.6132667618026115      1
0.5849999999999993        0.225                    -0.5657055404583113      1
0.6949999999999996        0.225                    -0.4530649110297147      1
0.8049999999999997        0.225                    -0.49880473521445134     1
0.915                     0.225                    -0.23706094894687824     1
1.025                     0.225                    -0.23606316336277222     1
1.1349999999999996        0.225                    -0.2077826273514063      1
1.2449999999999994        0.225                    -0.23821367206972607     1
1.3549999999999998        0.225                    -0.13526279932392993     1
1.4649999999999996        0.225                    -0.08914221242225917     1
1.575                     0.225                    -0.11606096706506155     1
1.6849999999999998        0.225                    -0.03051306809717147     1
1.7949999999999993        0.225                    0.024802293175074652     1
1.9049999999999996        0.225                    0.059922144577437275     1
2.0149999999999997        0.225                    0.004256035297135696     1
2.125                     0.225                    -0.058670766561677135    1
2.2349999999999994        0.225                    0.044306823309840926     1
2.3449999999999998        0.225                    0.04296199237126608      1
2.455                     0.225                    -0.060084885091039264    1
2.5649999999999995        0.225                    0.04682860441204806      1
2.675                     0.225                    0.057698744695020565     1
2.785                     0.225                    0.01352481472572542      1
2.8949999999999996        0.225                    0.13807191278167208      1
3.005                     0.225                    0.09911462922221315      1
3.115                     0.225                    0.08804707300058123      1
3.224999999999999         0.225                    0.1577980088529504       1
3.335                     0.225                    0.092374784714147        1
3.445                     0.225                    0.09803497691697682      1
3.5549999999999997        0.225                    0.06632985842721796      1
3.6649999999999996        0.225                    0.09969729702486269      1
3.7750000000000004        0.225                    0.1754505870312255       1
3.8850000000000002        0.225                    0.10669637253765218      1
3.995                     0.225                    0.07029546761370709      1
4.105                     0.225                    0.1263161765288663       1
4.214999999999999         0.225                    0.14030157513810249      1
4.324999999999999         0.225                    0.1766823183848878       1
4.435                     0.225                    0.19690662339140008      1
4.544999999999999         0.225                    0.11368085760075619      1
4.655                     0.225                    0.13149631609935986      1
4.765                     0.225                    0.1423771639731939       1
4.875                     0.225                    0.14926671938478422      1
4.984999999999999         0.225                    0.16555316053477842      1
5.095                     0.225                    0.21105031184428225      1
5.205                     0.225                    0.15519626912165382      1
5.315                     0.225                    0.16645402115759111      1
5.425                     0.225                    0.13859124465764025      1
5.535000000000001         0.225                    0.15538438813835365      1
5.645                     0.225                    0.21563867434830297      1
5.755                     0.225                    0.2561739418505322       1
5.864999999999999         0.225                    0.2656603106998041       1
5.975                     0.225                    0.2377306107762247       1
6.085                     0.225                    0.29154602395107965      1
6.195                     0.225                    0.3170479824452359       1
6.305                     0.225                    0.43804456407671777      1
6.415                     0.225                    0.4956611234875441       1
6.525                     0.225                    0.5513898683140637       1
6.635000000000001         0.225                    0.6165350213356646       1
6.745                     0.225                    0.6440825233123645       1
6.855                     0.225                    0.6719822192598288       1
6.964999999999999         0.225                    0.5333573324960703       1
7.074999999999999         0.225                    0.4993290924781286       1
7.185                     0.225                    0.5208878328612583       1
7.294999999999999         0.225                    0.48224343641815104      1
7.405                     0.225                    0.3725733508594097       1
7.515                     0.225                    0.29760547805531384      1
7.625                     0.225                    0.23052862097593546      1
7.734999999999999         0.225                    0.17646543323854458      1
7.845                     0.225                    0.13881502840780802      1
7.954999999999999         0.225                    0.11030178588012685      1
8.065                     0.225                    0.08836603558714796      1
8.175                     0.225                    0.06867963762169399      1
8.285                     0.225                    0.052607215176590116     1
8.395                     0.225                    0.04190833702580776      1
8.504999999999999         0.225                    0.03222868646844412      1
8.615                     0.225                    0.02409890324852645      1
8.725                     0.225                    0.016657003879027493     1
8.835                     0.225                    0.010450067520247564     1
8.945                     0.225                    0.003691102787944047     1
-1.9450000000000005       0.315                    -0.003619665775137118    1
-1.8350000000000004       0.315                    -0.010463262307739252    1
-1.7250000000000003       0.315                    -0.017285075663282037    1
-1.6150000000000002       0.315                    -0.02484614509598021     1
-1.5050000000000003       0.315                    -0.03468914882550307     1
-1.3950000000000005       0.315                    -0.044474849936114336    1
-1.2850000000000006       0.315                    -0.05919886391868412     1
-1.1750000000000007       0.315                    -0.07430019345256322     1
-1.0650000000000004       0.315                    -0.09063833741566268     1
-0.9550000000000005       0.315                    -0.11359175746765009     1
-0.8450000000000005       0.315                    -0.14663566936786354     1
-0.7350000000000003       0.315                    -0.18091794511878062     1
-0.6250000000000004       0.315                    -0.24263415685889259     1
-0.5150000000000003       0.315                    -0.3123809919863971      1
-0.40500000000000047      0.315                    -0.390235409315584       1
-0.2950000000000004       0.315                    -0.5129899899720726      1
-0.18500000000000028      0.315                    -0.612839859836404       1
-0.0750000000000004       0.315                    -0.7135271078796732      1
0.0349999999999997        0.315                    -0.8224812757229056      1
0.1449999999999998        0.315                    -0.7845039822683981      1
0.25499999999999945       0.315                    -0.7699271686222886      1
0.36499999999999955       0.315                    -0.7035704030360593      1
0.4749999999999994        0.315                    -0.6123200287824453      1
0.5849999999999993        0.315                    -0.5197968176678005      1
0.6949999999999996        0.315                    -0.43416171078433763     1
0.8049999999999997        0.315                    -0.4355329309454383      1
0.915                     0.315                    -0.3100268864289884      1
1.025                     0.315                    -0.2590153230764334      1
1.1349999999999996        0.315                    -0.21630926818244012     1
1.2449999999999994        0.315                    -0.06712007653817897     1
1.3549999999999998        0.315                    -0.06519156026575956     1
1.4649999999999996        0.315                    -0.06872623224199792     1
1.575                     0.315                    -0.17607143412693205     1
1.6849999999999998        0.315                    -0.15970053285515284     1
1.7949999999999993        0.315                    0.09440131555047404      1
1.9049999999999996        0.315                    -0.00869056298721771     1
2.0149999999999997        0.315                    -2.2861498413240255E-4   1
2.125                     0.315                    -0.22883756740473826     1
2.2349999999999994        0.315                    0.21154958105820265      1
2.3449999999999998        0.315                    0.1832069581308371       1
2.455                     0.315                    -0.0827371452542458      1
2.5649999999999995        0.315                    0.07070105607569666      1
2.675                     0.315                    0.09496180056583725      1
2.785                     0.315                    0.009259883762364751     1
2.8949999999999996        0.315                    0.059623363917682415     1
3.005                     0.315                    0.11744250851336147      1
3.115                     0.315                    0.12767047350923377      1
3.224999999999999         0.315                    0.15187631254780562      1
3.335                     0.315                    0.14665600870098427      1
3.445                     0.315                    0.13271649675537223      1
3.5549999999999997        0.315                    0.23285485647516757      1
3.6649999999999996        0.315                    0.21944952582868016      1
3.7750000000000004        0.315                    0.19189033485362028      1
3.8850000000000002        0.315                    0.10940029794989581      1
3.995                     0.315                    0.09929521685203069      1
4.105                     0.315                    0.10724065698175878      1
4.214999999999999         0.315                    0.19170469003836743      1
4.324999999999999         0.315                    0.17251332162874888      1
4.435                     0.315                    0.16049721010444706      1
4.544999999999999         0.315                    0.11643415311714272      1
4.655                     0.315                    0.22143187766624095      1
4.765                     0.315                    0.21464867819184263      1
4.875                     0.315                    0.20170498189944497      1
4.984999999999999         0.315                    0.2411860174431455       1
5.095                     0.315                    0.280667052986848        1
5.205                     0.315                    0.2617597689965415       1
5.315                     0.315                    0.15196343207059892      1
5.425                     0.315                    0.22889553199125556      1
5.535000000000001         0.315                    0.08751200253931257      1
5.645                     0.315                    0.2267104126155457       1
5.755                     0.315                    0.26156954992018333      1
5.864999999999999         0.315                    0.27942798138993963      1
5.975                     0.315                    0.31418521959277346      1
6.085                     0.315                    0.30603027311533104      1
6.195                     0.315                    0.3516810873932359       1
6.305                     0.315                    0.4025427161490924       1
6.415                     0.315                    0.46303734158231835      1
6.525                     0.315                    0.5394763596387269       1
6.635000000000001         0.315                    0.601828486081081        1
6.745                     0.315                    0.5871947648901115       1