% Model:              sc_magnet.mph
% Version:            COMSOL 6.2.0.415
% Date:               Feb 3 2025, 12:36
% Dimension:          2
% Nodes:              3000
% Expressions:        2
% Description:        Point
% cpl8x                   cpl8y                    Magnetic flux density, x-component Radius
-1.9450000000000005       0.045000000000000005     5.389165718664296E-4     1
-1.8350000000000004       0.045000000000000005     8.137609385279491E-4     1
-1.7250000000000003       0.045000000000000005     0.0010447775868177695    1
-1.6150000000000002       0.045000000000000005     6.768434611168425E-4     1
-1.5050000000000003       0.045000000000000005     0.001097383022442125     1
-1.3950000000000005       0.045000000000000005     0.001097383022442125     1
-1.2850000000000006       0.045000000000000005     0.0029122820186282816    1
-1.1750000000000007       0.045000000000000005     0.0026304203673438824    1
-1.0650000000000004       0.045000000000000005     0.003258692936302085     1
-0.9550000000000005       0.045000000000000005     0.0030246200637387213    1
-0.8450000000000005       0.045000000000000005     0.0030246200637387213    1
-0.7350000000000003       0.045000000000000005     0.009331407743282005     1
-0.6250000000000004       0.045000000000000005     0.009331407743282005     1
-0.5150000000000003       0.045000000000000005     0.012994283375635025     1
-0.40500000000000047      0.045000000000000005     0.016303113475617803     1
-0.2950000000000004       0.045000000000000005     0.02771388219362292      1
-0.18500000000000028      0.045000000000000005     0.05234611785561416      1
-0.0750000000000004       0.045000000000000005     0.03266472847239399      1
0.0349999999999997        0.045000000000000005     0.30574009954760617      1
0.1449999999999998        0.045000000000000005     0.2762912134089479       1
0.25499999999999945       0.045000000000000005     0.22785426667307607      1
0.36499999999999955       0.045000000000000005     0.26267879419043993      1
0.4749999999999994        0.045000000000000005     0.2228929884899724       1
0.5849999999999993        0.045000000000000005     0.3950727535639179       1
0.6949999999999996        0.045000000000000005     0.15122521143907397      1
0.8049999999999997        0.045000000000000005     0.241924001777019        1
0.915                     0.045000000000000005     0.20128669458314252      1
1.025                     0.045000000000000005     0.18468522349842464      1
1.1349999999999996        0.045000000000000005     0.21347933114972228      1
1.2449999999999994        0.045000000000000005     0.21347933114972228      1
1.3549999999999998        0.045000000000000005     0.21939247495920255      1
1.4649999999999996        0.045000000000000005     0.21723833052074548      1
1.575                     0.045000000000000005     0.2178821812137593       1
1.6849999999999998        0.045000000000000005     0.2178821812137593       1
1.7949999999999993        0.045000000000000005     0.23888745049790272      1
1.9049999999999996        0.045000000000000005     0.21400862837693857      1
2.0149999999999997        0.045000000000000005     0.047626527932218776     1
2.125                     0.045000000000000005     0.20854207990879015      1
2.2349999999999994        0.045000000000000005     0.23327055220477133      1
2.3449999999999998        0.045000000000000005     0.21165148020471525      1
2.455                     0.045000000000000005     0.21165148020471525      1
2.5649999999999995        0.045000000000000005     0.22709367697233906      1
2.675                     0.045000000000000005     0.22709367697233906      1
2.785                     0.045000000000000005     0.22709367697233906      1
2.8949999999999996        0.045000000000000005     0.20970283229329978      1
3.005                     0.045000000000000005     0.20970283229329933      1
3.115                     0.045000000000000005     0.22036734350589482      1
3.224999999999999         0.045000000000000005     0.2166202787091995       1
3.335                     0.045000000000000005     0.2166202787091995       1
3.445                     0.045000000000000005     0.2107834841791819       1
3.5549999999999997        0.045000000000000005     0.2107834841791819       1
3.6649999999999996        0.045000000000000005     0.21665387952546042      1
3.7750000000000004        0.045000000000000005     0.23412242091741353      1
3.8850000000000002        0.045000000000000005     0.23254974256519545      1
3.995                     0.045000000000000005     0.18659530491528897      1
4.105                     0.045000000000000005     0.23654531463516426      1
4.214999999999999         0.045000000000000005     0.23642034165434522      1
4.324999999999999         0.045000000000000005     0.16316530765082327      1
4.435                     0.045000000000000005     0.2002207094506554       1
4.544999999999999         0.045000000000000005     0.21064059902390964      1
4.655                     0.045000000000000005     0.21679374716889188      1
4.765                     0.045000000000000005     0.21679374716889188      1
4.875                     0.045000000000000005     0.22787630463791508      1
4.984999999999999         0.045000000000000005     0.21830884920247384      1
5.095                     0.045000000000000005     0.2195098741797359       1
5.205                     0.045000000000000005     0.2195098741797359       1
5.315                     0.045000000000000005     0.18023248199940467      1
5.425                     0.045000000000000005     0.2206278329180586       1
5.535000000000001         0.045000000000000005     0.2206278329180586       1
5.645                     0.045000000000000005     0.23677168508996838      1
5.755                     0.045000000000000005     0.2004136676754258       1
5.864999999999999         0.045000000000000005     0.21106331147132873      1
5.975                     0.045000000000000005     0.21106331147132873      1
6.085                     0.045000000000000005     0.21079034683561526      1
6.195                     0.045000000000000005     0.20821502643533163      1
6.305                     0.045000000000000005     0.20768719617643183      1
6.415                     0.045000000000000005     0.21456968163212253      1
6.525                     0.045000000000000005     0.19760381366259816      1
6.635000000000001         0.045000000000000005     0.1929235798136526       1
6.745                     0.045000000000000005     0.20050679794142456      1
6.855                     0.045000000000000005     0.19151342659557002      1
6.964999999999999         0.045000000000000005     0.20340800860436833      1
7.074999999999999         0.045000000000000005     0.0319669960511626       1
7.185                     0.045000000000000005     0.02587855710475906      1
7.294999999999999         0.045000000000000005     0.021294731533373662     1
7.405                     0.045000000000000005     0.01616034742501643      1
7.515                     0.045000000000000005     0.007694440389739654     1
7.625                     0.045000000000000005     0.00816782322491369      1
7.734999999999999         0.045000000000000005     0.008091678828243687     1
7.845                     0.045000000000000005     0.0031909381269665804    1
7.954999999999999         0.045000000000000005     0.0031909381269665804    1
8.065                     0.045000000000000005     0.004857700967175749     1
8.175                     0.045000000000000005     0.0024693319323216964    1
8.285                     0.045000000000000005     0.001449079414157583     1
8.395                     0.045000000000000005     0.0010376443650342085    1
8.504999999999999         0.045000000000000005     0.0010376443650342085    1
8.615                     0.045000000000000005     0.0017445236315715828    1
8.725                     0.045000000000000005     6.002058350539421E-4     1
8.835                     0.045000000000000005     6.002058350539421E-4     1
8.945                     0.045000000000000005     6.002058350539421E-4     1
-1.9450000000000005       0.135                    0.0020815695811318043    1
-1.8350000000000004       0.135                    0.0023125862294216606    1
-1.7250000000000003       0.135                    0.0025436028777114615    1
-1.6150000000000002       0.135                    0.002358608317452049     1
-1.5050000000000003       0.135                    0.0032921490673263887    1
-1.3950000000000005       0.135                    0.0034935273197761463    1
-1.2850000000000006       0.135                    0.005803458685933294     1
-1.1750000000000007       0.135                    0.008113390052090164     1
-1.0650000000000004       0.135                    0.009786986399991052     1
-0.9550000000000005       0.135                    0.008343503177535863     1
-0.8450000000000005       0.135                    0.007184868973632574     1
-0.7350000000000003       0.135                    0.022775037862420855     1
-0.6250000000000004       0.135                    0.02817762437100102      1
-0.5150000000000003       0.135                    0.04791970488773217      1
-0.40500000000000047      0.135                    0.05143270116088494      1
-0.2950000000000004       0.135                    0.08934028266068328      1
-0.18500000000000028      0.135                    0.10134872675163908      1
-0.0750000000000004       0.135                    0.1399376361029604       1
0.0349999999999997        0.135                    1.0459784119674063       1
0.1449999999999998        0.135                    0.9033569734281972       1
0.25499999999999945       0.135                    0.8604421751946796       1
0.36499999999999955       0.135                    0.7166725299534904       1
0.4749999999999994        0.135                    0.9046744181130308       1
0.5849999999999993        0.135                    0.8355004217066795       1
0.6949999999999996        0.135                    0.8069612086952827       1
0.8049999999999997        0.135                    0.7298634640276922       1
0.915                     0.135                    0.7273208207339897       1
1.025                     0.135                    0.8126940066445645       1
1.1349999999999996        0.135                    0.7926001104431828       1
1.2449999999999994        0.135                    0.5016007868835795       1
1.3549999999999998        0.135                    0.6961915097560913       1
1.4649999999999996        0.135                    0.6828158406495173       1
1.575                     0.135                    0.5449449715332597       1
1.6849999999999998        0.135                    0.6684120254821182       1
1.7949999999999993        0.135                    0.7052265563099898       1
1.9049999999999996        0.135                    0.6720468548391954       1
2.0149999999999997        0.135                    0.7065244737509535       1
2.125                     0.135                    0.6256262397263703       1
2.2349999999999994        0.135                    0.6656391251786438       1
2.3449999999999998        0.135                    0.6349544406141459       1
2.455                     0.135                    0.6349544406141459       1
2.5649999999999995        0.135                    0.6614622533381638       1
2.675                     0.135                    0.6812810309170167       1
2.785                     0.135                    0.6699024591734613       1
2.8949999999999996        0.135                    0.6233275286933717       1
3.005                     0.135                    0.6291084968798994       1
3.115                     0.135                    0.6678034071967986       1
3.224999999999999         0.135                    0.6839254214584007       1
3.335                     0.135                    0.7046977118684525       1
3.445                     0.135                    0.6713265978134647       1
3.5549999999999997        0.135                    0.6583198091070808       1
3.6649999999999996        0.135                    0.677907823396145        1
3.7750000000000004        0.135                    0.6499616385763813       1
3.8850000000000002        0.135                    0.6617201541036728       1
3.995                     0.135                    0.697649227695587        1
4.105                     0.135                    0.6401167096628813       1
4.214999999999999         0.135                    0.657257304719483        1
4.324999999999999         0.135                    0.6657885149356808       1
4.435                     0.135                    0.6740135866386119       1
4.544999999999999         0.135                    0.6319217970717288       1
4.655                     0.135                    0.6299807197160572       1
4.765                     0.135                    0.6503812415066754       1
4.875                     0.135                    0.6680410431109769       1
4.984999999999999         0.135                    0.6689919482502953       1
5.095                     0.135                    0.649921701239879        1
5.205                     0.135                    0.6585296225392074       1
5.315                     0.135                    0.6711432731283469       1
5.425                     0.135                    0.6196233308254202       1
5.535000000000001         0.135                    0.6196233308254202       1
5.645                     0.135                    0.6349017454823769       1
5.755                     0.135                    0.610944959259335        1
5.864999999999999         0.135                    0.6331899344139851       1
5.975                     0.135                    0.6686115451309416       1
6.085                     0.135                    0.6285325030929038       1
6.195                     0.135                    0.6188372853340717       1
6.305                     0.135                    0.6402240313986316       1
6.415                     0.135                    0.6379718044033222       1
6.525                     0.135                    0.6130713180940566       1
6.635000000000001         0.135                    0.5916012000328736       1
6.745                     0.135                    0.6003841758045843       1
6.855                     0.135                    0.6143113978069383       1
6.964999999999999         0.135                    0.687226630060298        1
7.074999999999999         0.135                    0.07607452145178334      1
7.185                     0.135                    0.08351333258017846      1
7.294999999999999         0.135                    0.057674352344468716     1
7.405                     0.135                    0.05062153566520047      1
7.515                     0.135                    0.031555014368997436     1
7.625                     0.135                    0.02754067706720953      1
7.734999999999999         0.135                    0.016506323472275014     1
7.845                     0.135                    0.007309430110602477     1
7.954999999999999         0.135                    0.010809827393859939     1
8.065                     0.135                    0.007407995796965088     1
8.175                     0.135                    0.00609391353887535      1
8.285                     0.135                    0.0043472382424727535    1
8.395                     0.135                    0.0031129330951026046    1
8.504999999999999         0.135                    0.0031129330951026046    1
8.615                     0.135                    0.0031988214448854663    1
8.725                     0.135                    0.0018006175051618611    1
8.835                     0.135                    0.0018006175051618611    1
8.945                     0.135                    0.0018006175051618611    1
-1.9450000000000005       0.225                    0.0035803948720254768    1
-1.8350000000000004       0.225                    0.0038114115203153782    1
-1.7250000000000003       0.225                    0.00426810678257003      1
-1.6150000000000002       0.225                    0.004040373173787214     1
-1.5050000000000003       0.225                    0.005486915112210666     1
-1.3950000000000005       0.225                    0.006384703987081131     1
-1.2850000000000006       0.225                    0.008694635353238278     1
-1.1750000000000007       0.225                    0.012396640243919857     1
-1.0650000000000004       0.225                    0.016315279863679755     1
-0.9550000000000005       0.225                    0.01487179664122458      1
-0.8450000000000005       0.225                    0.023468881655988573     1
-0.7350000000000003       0.225                    0.032526732284989035     1
-0.6250000000000004       0.225                    0.04441612904806869      1
-0.5150000000000003       0.225                    0.0675713544856538       1
-0.40500000000000047      0.225                    0.088818624141493        1
-0.2950000000000004       0.225                    0.13129183496123575      1
-0.18500000000000028      0.225                    0.17042706648010242      1
-0.0750000000000004       0.225                    0.20901597583142162      1
0.0349999999999997        0.225                    1.915814384104304        1
0.1449999999999998        0.225                    1.526970049368296        1
0.25499999999999945       0.225                    1.4518033990522445       1
0.36499999999999955       0.225                    1.4072403264113291       1
0.4749999999999994        0.225                    1.521290283328316        1
0.5849999999999993        0.225                    1.3914113931367584       1
0.6949999999999996        0.225                    1.3671482820510796       1
0.8049999999999997        0.225                    1.5665505973821858       1
0.915                     0.225                    1.3728786593005353       1
1.025                     0.225                    1.430289968199544        1
1.1349999999999996        0.225                    1.367503326316884        1
1.2449999999999994        0.225                    1.5689844712425773       1
1.3549999999999998        0.225                    1.3170103341399644       1
1.4649999999999996        0.225                    1.3056007032356356       1
1.575                     0.225                    1.1590232750354124       1
1.6849999999999998        0.225                    1.1567144758346366       1
1.7949999999999993        0.225                    1.1596411170634875       1
1.9049999999999996        0.225                    1.2182158112463812       1
2.0149999999999997        0.225                    1.3051983807163188       1
2.125                     0.225                    1.1766905181713234       1
2.2349999999999994        0.225                    1.0980076981525118       1
2.3449999999999998        0.225                    1.0926820896415397       1
2.455                     0.225                    1.0515415247725464       1
2.5649999999999995        0.225                    1.167124269281675        1
2.675                     0.225                    1.1736481570022887       1
2.785                     0.225                    1.1742766226152526       1
2.8949999999999996        0.225                    1.2056524833419564       1
3.005                     0.225                    1.1715372118724012       1
3.115                     0.225                    1.1471779019408161       1
3.224999999999999         0.225                    1.1580940423799722       1
3.335                     0.225                    1.2719769325461576       1
3.445                     0.225                    1.2475809605110033       1
3.5549999999999997        0.225                    1.1006928374660534       1
3.6649999999999996        0.225                    1.1202808517551144       1
3.7750000000000004        0.225                    1.2457110932449231       1
3.8850000000000002        0.225                    1.2764091423750554       1
3.995                     0.225                    1.4122130765706107       1
4.105                     0.225                    1.0955493716804625       1
4.214999999999999         0.225                    1.0521112567094217       1
4.324999999999999         0.225                    1.1581463667137193       1
4.435                     0.225                    1.1432619454188124       1
4.544999999999999         0.225                    1.1283688404906043       1
4.655                     0.225                    1.1053072354508604       1
4.765                     0.225                    1.1008127733496123       1
4.875                     0.225                    1.1036987189832594       1
4.984999999999999         0.225                    1.132662926943544        1
5.095                     0.225                    1.1158758423544963       1
5.205                     0.225                    1.089204342872573        1
5.315                     0.225                    1.1074993360511887       1
5.425                     0.225                    1.0614903986385855       1
5.535000000000001         0.225                    1.1501706268198075       1
5.645                     0.225                    1.1483516818552155       1
5.755                     0.225                    1.1413704634132311       1
5.864999999999999         0.225                    1.1253184172753645       1
5.975                     0.225                    1.0364431134851484       1
6.085                     0.225                    1.086119114248561        1
6.195                     0.225                    1.0493751525813622       1
6.305                     0.225                    1.072354698370468        1
6.415                     0.225                    1.0813183923288494       1
6.525                     0.225                    1.0496446720163908       1
6.635000000000001         0.225                    1.0499690888428725       1
6.745                     0.225                    1.0629444330269098       1
6.855                     0.225                    1.0964691877643207       1
6.964999999999999         0.225                    1.1652585877307482       1
7.074999999999999         0.225                    0.15085891906585763      1
7.185                     0.225                    0.1380184110913284       1
7.294999999999999         0.225                    0.10918016796043009      1
7.405                     0.225                    0.07448210964445695      1
7.515                     0.225                    0.05541558834825566      1
7.625                     0.225                    0.04182242078857645      1
7.734999999999999         0.225                    0.027971874082606263     1
7.845                     0.225                    0.01997198180522794      1
7.954999999999999         0.225                    0.015005604329163647     1
8.065                     0.225                    0.012346659661608486     1
8.175                     0.225                    0.009119536708521121     1
8.285                     0.225                    0.008387659485578486     1
8.395                     0.225                    0.0051882218251710355    1
8.504999999999999         0.225                    0.0051882218251710355    1
8.615                     0.225                    0.004653119258199279     1
8.725                     0.225                    0.0028603550004930034    1
8.835                     0.225                    0.0030010291752697316    1
8.945                     0.225                    0.0030894822458164568    1
-1.9450000000000005       0.315                    0.0050792201629191805    1
-1.8350000000000004       0.315                    0.0049790759273003055    1
-1.7250000000000003       0.315                    0.005324391912199286     1
-1.6150000000000002       0.315                    0.00572213803012242      1
-1.5050000000000003       0.315                    0.005285172085331864     1
-1.3950000000000005       0.315                    0.009275880654386004     1
-1.2850000000000006       0.315                    0.011585812020543318     1
-1.1750000000000007       0.315                    0.014999516769366256     1
-1.0650000000000004       0.315                    0.019042825613002343     1
-0.9550000000000005       0.315                    0.021400090104913283     1
-0.8450000000000005       0.315                    0.03065835808634916      1
-0.7350000000000003       0.315                    0.04227842670755688      1
-0.6250000000000004       0.315                    0.0606546337251368       1
-0.5150000000000003       0.315                    0.08598480700369016      1
-0.40500000000000047      0.315                    0.12620454712210183      1
-0.2950000000000004       0.315                    0.18854046548501957      1
-0.18500000000000028      0.315                    0.2185634936171823       1
-0.0750000000000004       0.315                    0.3149307287007588       1
0.0349999999999997        0.315                    2.199930078318558        1
0.1449999999999998        0.315                    2.10981531127835         1
0.25499999999999945       0.315                    2.0010430066945695       1
0.36499999999999955       0.315                    1.9913992060975376       1
0.4749999999999994        0.315                    1.9633092353662045       1
0.5849999999999993        0.315                    1.9438321579729791       1
0.6949999999999996        0.315                    1.9661698201095876       1
0.8049999999999997        0.315                    2.0738589635484153       1
0.915                     0.315                    2.0227039239319864       1
1.025                     0.315                    2.0360533664187663       1
1.1349999999999996        0.315                    1.978667654180468        1
1.2449999999999994        0.315                    2.0525250302736873       1
1.3549999999999998        0.315                    1.8901471522130069       1
1.4649999999999996        0.315                    1.8888491332645316       1
1.575                     0.315                    1.9038392034170908       1
1.6849999999999998        0.315                    1.9798866359572638       1
1.7949999999999993        0.315                    2.0129301434657285       1
1.9049999999999996        0.315                    1.8563010211869355       1
2.0149999999999997        0.315                    1.8714266693271997       1
2.125                     0.315                    2.0324486299507827       1
2.2349999999999994        0.315                    1.9054016356144987       1
2.3449999999999998        0.315                    1.9435876553846638       1
2.455                     0.315                    1.9802287820020474       1
2.5649999999999995        0.315                    1.7452957107925977       1
2.675                     0.315                    1.7446146470492288       1
2.785                     0.315                    1.8349629632628326       1
2.8949999999999996        0.315                    1.7715464355051367       1
3.005                     0.315                    1.749144481056109        1
3.115                     0.315                    1.8150991195425052       1
3.224999999999999         0.315                    1.9770336474971888       1
3.335                     0.315                    1.821781557842172        1
3.445                     0.315                    1.8165980035703209       1
3.5549999999999997        0.315                    1.9452969368820368       1
3.6649999999999996        0.315                    1.8619675805916425       1
3.7750000000000004        0.315                    1.8609657546872898       1
3.8850000000000002        0.315                    1.7845076896092058       1
3.995                     0.315                    1.8468936858641793       1
4.105                     0.315                    1.8545437188619034       1
4.214999999999999         0.315                    1.6505533068055627       1
4.324999999999999         0.315                    1.658334536911192        1
4.435                     0.315                    1.6595648836156869       1
4.544999999999999         0.315                    1.6316756062717364       1
4.655                     0.315                    1.6917213854295055       1
4.765                     0.315                    1.6782898482986894       1
4.875                     0.315                    1.6248347449619365       1
4.984999999999999         0.315                    1.6503741327661556       1
5.095                     0.315                    1.6759135205703757       1
5.205                     0.315                    1.5892665170159148       1
5.315                     0.315                    1.6368457365835631       1
5.425                     0.315                    1.6533659155404319       1
5.535000000000001         0.315                    1.6446648452122101       1
5.645                     0.315                    1.6618016182280508       1
5.755                     0.315                    1.6717959675671257       1
5.864999999999999         0.315                    1.671073844207179        1
5.975                     0.315                    1.5532934002796557       1
6.085                     0.315                    1.5051316220029403       1
6.195                     0.315                    1.547970051320366        1
6.305                     0.315                    1.5247449216674944       1
6.415                     0.315                    1.5279930581049226       1
6.525                     0.315                    1.5286481972075103       1
6.635000000000001         0.315                    1.486561475936674        1
6.745                     0.315                    1.487295349410909        1