% Model:              sc_magnet.mph
% Version:            COMSOL 6.2.0.415
% Date:               Feb 3 2025, 12:46
% Dimension:          2
% Nodes:              3000
% Expressions:        2
% Description:        Point
% cpl8x                   cpl8y                    Magnetic flux density, y-component Radius
-1.9450000000000005       0.045000000000000005     -0.06203217630271368     1
-1.8350000000000004       0.045000000000000005     -0.0627751991334234      1
-1.7250000000000003       0.045000000000000005     -0.06351822196413315     1
-1.6150000000000002       0.045000000000000005     -0.06414663691391202     1
-1.5050000000000003       0.045000000000000005     -0.06340513566632998     1
-1.3950000000000005       0.045000000000000005     -0.06608258650157908     1
-1.2850000000000006       0.045000000000000005     -0.06509693986533428     1
-1.1750000000000007       0.045000000000000005     -0.0660129889368723      1
-1.0650000000000004       0.045000000000000005     -0.06694164714603684     1
-0.9550000000000005       0.045000000000000005     -0.061304616738965076    1
-0.8450000000000005       0.045000000000000005     -0.05427087540391107     1
-0.7350000000000003       0.045000000000000005     -0.04421135122290565     1
-0.6250000000000004       0.045000000000000005     -0.028379511764434096    1
-0.5150000000000003       0.045000000000000005     0.010589524456390664     1
-0.40500000000000047      0.045000000000000005     0.04281001947459995      1
-0.2950000000000004       0.045000000000000005     0.1162553590366242       1
-0.18500000000000028      0.045000000000000005     0.218351471943331        1
-0.0750000000000004       0.045000000000000005     0.37896512573879937      1
0.0349999999999997        0.045000000000000005     0.7758143455238226       1
0.1449999999999998        0.045000000000000005     0.5755773653846807       1
0.25499999999999945       0.045000000000000005     0.4671115847849503       1
0.36499999999999955       0.045000000000000005     0.5031503519719996       1
0.4749999999999994        0.045000000000000005     0.5252463535401914       1
0.5849999999999993        0.045000000000000005     0.5335508074554374       1
0.6949999999999996        0.045000000000000005     0.5418552613706829       1
0.8049999999999997        0.045000000000000005     0.5345666052918897       1
0.915                     0.045000000000000005     0.5274372828995623       1
1.025                     0.045000000000000005     0.5125044512086415       1
1.1349999999999996        0.045000000000000005     0.4975716195177208       1
1.2449999999999994        0.045000000000000005     0.4973604153843516       1
1.3549999999999998        0.045000000000000005     0.5072506165464715       1
1.4649999999999996        0.045000000000000005     0.5022438740233607       1
1.575                     0.045000000000000005     0.49723713150025023      1
1.6849999999999998        0.045000000000000005     0.4922303889771393       1
1.7949999999999993        0.045000000000000005     0.5033575888834855       1
1.9049999999999996        0.045000000000000005     0.49173602102766917      1
2.0149999999999997        0.045000000000000005     0.4916418340710984       1
2.125                     0.045000000000000005     0.4915476471145279       1
2.2349999999999994        0.045000000000000005     0.5671482463020707       1
2.3449999999999998        0.045000000000000005     0.4676866265346067       1
2.455                     0.045000000000000005     0.46908313194548024      1
2.5649999999999995        0.045000000000000005     0.47047963735635445      1
2.675                     0.045000000000000005     0.47764324227448396      1
2.785                     0.045000000000000005     0.4583624935604003       1
2.8949999999999996        0.045000000000000005     0.46203716024730407      1
3.005                     0.045000000000000005     0.4657118269342076       1
3.115                     0.045000000000000005     0.4693864936211117       1
3.224999999999999         0.045000000000000005     0.4580847899321561       1
3.335                     0.045000000000000005     0.46073801278568355      1
3.445                     0.045000000000000005     0.4633912356392112       1
3.5549999999999997        0.045000000000000005     0.5398929497534524       1
3.6649999999999996        0.045000000000000005     0.5530454414101309       1
3.7750000000000004        0.045000000000000005     0.576363246175613        1
3.8850000000000002        0.045000000000000005     0.5996810509410954       1
3.995                     0.045000000000000005     0.6229988557065782       1
4.105                     0.045000000000000005     0.6392846593630855       1
4.214999999999999         0.045000000000000005     0.6500134820333308       1
4.324999999999999         0.045000000000000005     0.6722301139250141       1
4.435                     0.045000000000000005     0.6944467458166972       1
4.544999999999999         0.045000000000000005     0.9199804185234037       1
4.655                     0.045000000000000005     0.6427386214230784       1
4.765                     0.045000000000000005     0.6624073625528197       1
4.875                     0.045000000000000005     0.6820761036825616       1
4.984999999999999         0.045000000000000005     0.7017448448123033       1
5.095                     0.045000000000000005     1.4301287404112315       1
5.205                     0.045000000000000005     1.3902856946217261       1
5.315                     0.045000000000000005     1.3487875525896964       1
5.425                     0.045000000000000005     1.3072894105576671       1
5.535000000000001         0.045000000000000005     1.4572641255711876       1
5.645                     0.045000000000000005     0.9194908506911413       1
5.755                     0.045000000000000005     0.9425927258101923       1
5.864999999999999         0.045000000000000005     0.9656946009292433       1
5.975                     0.045000000000000005     1.0259900197838623       1
6.085                     0.045000000000000005     1.113902561401174        1
6.195                     0.045000000000000005     0.9580635728825695       1
6.305                     0.045000000000000005     0.9702792328163755       1
6.415                     0.045000000000000005     0.9824948927501831       1
6.525                     0.045000000000000005     1.2562104956754212       1
6.635000000000001         0.045000000000000005     0.9486647280921388       1
6.745                     0.045000000000000005     1.0349398457921568       1
6.855                     0.045000000000000005     1.1212149634921749       1
6.964999999999999         0.045000000000000005     1.6288030624086671       1
7.074999999999999         0.045000000000000005     0.12808540076045818      1
7.185                     0.045000000000000005     0.10326810384994334      1
7.294999999999999         0.045000000000000005     0.05899926980361103      1
7.405                     0.045000000000000005     0.023670554857649385     1
7.515                     0.045000000000000005     -0.005371079953388813    1
7.625                     0.045000000000000005     -0.029323267254581224    1
7.734999999999999         0.045000000000000005     -0.040176801425219094    1
7.845                     0.045000000000000005     -0.051681259569167026    1
7.954999999999999         0.045000000000000005     -0.0631857177131161      1
8.065                     0.045000000000000005     -0.059917496163634454    1
8.175                     0.045000000000000005     -0.06396538393613675     1
8.285                     0.045000000000000005     -0.06253899126051192     1
8.395                     0.045000000000000005     -0.061907216094095344    1
8.504999999999999         0.045000000000000005     -0.05914325534538709     1
8.615                     0.045000000000000005     -0.059440701193300687    1
8.725                     0.045000000000000005     -0.0596643575775016      1
8.835                     0.045000000000000005     -0.058804578315638026    1
8.945                     0.045000000000000005     -0.05794479905377443     1
-1.9450000000000005       0.135                    -0.06177616224826891     1
-1.8350000000000004       0.135                    -0.0625191850789786      1
-1.7250000000000003       0.135                    -0.06326220790968831     1
-1.6150000000000002       0.135                    -0.06380423046132971     1
-1.5050000000000003       0.135                    -0.06747983703548918     1
-1.3950000000000005       0.135                    -0.06625035641501012     1
-1.2850000000000006       0.135                    -0.0650208757945311      1
-1.1750000000000007       0.135                    -0.06517193086267095     1
-1.0650000000000004       0.135                    -0.06610058907183547     1
-0.9550000000000005       0.135                    -0.06179627668386953     1
-0.8450000000000005       0.135                    -0.05473718592544413     1
-0.7350000000000003       0.135                    -0.04267961906404713     1
-0.6250000000000004       0.135                    -0.023816831897897295    1
-0.5150000000000003       0.135                    -0.002548758506512039    1
-0.40500000000000047      0.135                    0.03961662464945448      1
-0.2950000000000004       0.135                    0.10477406768264785      1
-0.18500000000000028      0.135                    0.21977795841772085      1
-0.0750000000000004       0.135                    0.3596171925085643       1
0.0349999999999997        0.135                    0.680508841026399        1
0.1449999999999998        0.135                    0.551763858065139        1
0.25499999999999945       0.135                    0.5149823184113336       1
0.36499999999999955       0.135                    0.5048716868470879       1
0.4749999999999994        0.135                    0.5037664062676012       1
0.5849999999999993        0.135                    0.5190386831766525       1
0.6949999999999996        0.135                    0.5273431370918985       1
0.8049999999999997        0.135                    0.5333419006815596       1
0.915                     0.135                    0.5510918795476646       1
1.025                     0.135                    0.5426367126732055       1
1.1349999999999996        0.135                    0.49641565006449273      1
1.2449999999999994        0.135                    0.5501252965419436       1
1.3549999999999998        0.135                    0.47753869744451366      1
1.4649999999999996        0.135                    0.5004200004726432       1
1.575                     0.135                    0.49541325794953256      1
1.6849999999999998        0.135                    0.4668368691433456       1
1.7949999999999993        0.135                    0.5381614583859764       1
1.9049999999999996        0.135                    0.48743886252802227      1
2.0149999999999997        0.135                    0.48734467557145106      1
2.125                     0.135                    0.48725048861488046      1
2.2349999999999994        0.135                    0.5301293588710454       1
2.3449999999999998        0.135                    0.47409921139527916      1
2.455                     0.135                    0.4754957168061528       1
2.5649999999999995        0.135                    0.476892222217027        1
2.675                     0.135                    0.49336221726656143      1
2.785                     0.135                    0.5121453484033051       1
2.8949999999999996        0.135                    0.4804898622126741       1
3.005                     0.135                    0.484164528899578        1
3.115                     0.135                    0.5086797531601854       1
3.224999999999999         0.135                    0.4575720546559688       1
3.335                     0.135                    0.4602252775094962       1
3.445                     0.135                    0.46287850036302347      1
3.5549999999999997        0.135                    0.5230497534507454       1
3.6649999999999996        0.135                    0.5231479132002742       1
3.7750000000000004        0.135                    0.560492056698033        1
3.8850000000000002        0.135                    0.5838098614635151       1
3.995                     0.135                    0.6071276662289979       1
4.105                     0.135                    0.604853641479004        1
4.214999999999999         0.135                    0.8766793462594702       1
4.324999999999999         0.135                    0.6772406220662678       1
4.435                     0.135                    0.6994572539579512       1
4.544999999999999         0.135                    0.5957760770684988       1
4.655                     0.135                    0.8514738159526909       1
4.765                     0.135                    0.650293305327927        1
4.875                     0.135                    0.6699620464576688       1
4.984999999999999         0.135                    0.7313031688959222       1
5.095                     0.135                    0.6263399549973412       1
5.205                     0.135                    0.6582506291021952       1
5.315                     0.135                    0.6816248552129125       1
5.425                     0.135                    0.7049990813236284       1
5.535000000000001         0.135                    0.6463375531533515       1
5.645                     0.135                    1.2878747981093774       1
5.755                     0.135                    0.9400811694826112       1
5.864999999999999         0.135                    0.9631830446016617       1
5.975                     0.135                    0.8676347476285162       1
6.085                     0.135                    0.8558402541934746       1
6.195                     0.135                    1.0735664467999284       1
6.305                     0.135                    0.962096566879552        1
6.415                     0.135                    0.9523271016477766       1
6.525                     0.135                    0.6865486051002181       1
6.635000000000001         0.135                    1.07395416202414         1
6.745                     0.135                    1.0270647446053365       1
6.855                     0.135                    1.0318476474542244       1
6.964999999999999         0.135                    0.7816037093624097       1
7.074999999999999         0.135                    0.13416485529049904      1
7.185                     0.135                    0.09414401979515041      1
7.294999999999999         0.135                    0.05521710501056809      1
7.405                     0.135                    0.01801518854699169      1
7.515                     0.135                    -0.007290531956517743    1
7.625                     0.135                    -0.03207083141523903     1
7.734999999999999         0.135                    -0.04357528955918785     1
7.845                     0.135                    -0.05507974770313584     1
7.954999999999999         0.135                    -0.05728148685114459     1
8.065                     0.135                    -0.059522765559153645    1
8.175                     0.135                    -0.06295137212329205     1
8.285                     0.135                    -0.06228438783229992     1
8.395                     0.135                    -0.06189099214403401     1
8.504999999999999         0.135                    -0.05918073615287517     1
8.615                     0.135                    -0.06037043356601761     1
8.725                     0.135                    -0.05944950041623531     1
8.835                     0.135                    -0.058589721154371756    1
8.945                     0.135                    -0.05772994189250817     1
-1.9450000000000005       0.225                    -0.06152014819382409     1
-1.8350000000000004       0.225                    -0.06226317102453381     1
-1.7250000000000003       0.225                    -0.06289501487469111     1
-1.6150000000000002       0.225                    -0.06391572467937987     1
-1.5050000000000003       0.225                    -0.06519110851245531     1
-1.3950000000000005       0.225                    -0.06503356163993014     1
-1.2850000000000006       0.225                    -0.06487601476740511     1
-1.1750000000000007       0.225                    -0.06371533110324815     1
-1.0650000000000004       0.225                    -0.06525953099763492     1
-0.9550000000000005       0.225                    -0.06085518143833522     1
-0.8450000000000005       0.225                    -0.05697972636365889     1
-0.7350000000000003       0.225                    -0.042031907610447505    1
-0.6250000000000004       0.225                    -0.023398167796840452    1
-0.5150000000000003       0.225                    -0.0047644279832342595   1
-0.40500000000000047      0.225                    0.036423229824305015     1
-0.2950000000000004       0.225                    0.07803628225404959      1
-0.18500000000000028      0.225                    0.20125512086254266      1
-0.0750000000000004       0.225                    0.29846017916679735      1
0.0349999999999997        0.225                    0.5852033365289748       1
0.1449999999999998        0.225                    0.5072579737525571       1
0.25499999999999945       0.225                    0.49621333598166206      1
0.36499999999999955       0.225                    0.4823673826418029       1
0.4749999999999994        0.225                    0.4719784322523801       1
0.5849999999999993        0.225                    0.5045265588978673       1
0.6949999999999996        0.225                    0.4878499444473694       1
0.8049999999999997        0.225                    0.505533840916939        1
0.915                     0.225                    0.5232838197830422       1
1.025                     0.225                    0.49547088474463397      1
1.1349999999999996        0.225                    0.5307861958349853       1
1.2449999999999994        0.225                    0.5149848549715786       1
1.3549999999999998        0.225                    0.4552479492456992       1
1.4649999999999996        0.225                    0.4985961269219252       1
1.575                     0.225                    0.49358938439881495      1
1.6849999999999998        0.225                    0.5014277353064738       1
1.7949999999999993        0.225                    0.4979721204815317       1
1.9049999999999996        0.225                    0.48314170402837475      1
2.0149999999999997        0.225                    0.48304751707180477      1
2.125                     0.225                    0.49439636071133297      1
2.2349999999999994        0.225                    0.49311047144001996      1
2.3449999999999998        0.225                    0.49182458216870695      1
2.455                     0.225                    0.48190830166682597      1
2.5649999999999995        0.225                    0.461698163365319        1
2.675                     0.225                    0.48380229173461775      1
2.785                     0.225                    0.5025854228713611       1
2.8949999999999996        0.225                    0.4989425641780443       1
3.005                     0.225                    0.5056620368547053       1
3.115                     0.225                    0.4891500580361163       1
3.224999999999999         0.225                    0.47263807921752726      1
3.335                     0.225                    0.4597125422333093       1
3.445                     0.225                    0.4623657650868365       1
3.5549999999999997        0.225                    0.48666941871730607      1
3.6649999999999996        0.225                    0.4867675784668341       1
3.7750000000000004        0.225                    0.5446208672204534       1
3.8850000000000002        0.225                    0.5679386719859361       1
3.995                     0.225                    0.5478626497298841       1
4.105                     0.225                    0.5704226235949232       1
4.214999999999999         0.225                    0.5929825974599616       1
4.324999999999999         0.225                    0.6822511302075223       1
4.435                     0.225                    0.5761002997001977       1
4.544999999999999         0.225                    0.572108434662536        1
4.655                     0.225                    0.5681165696248759       1
4.765                     0.225                    0.6381792481030341       1
4.875                     0.225                    0.6578479892327755       1
4.984999999999999         0.225                    0.60470838326167         1
5.095                     0.225                    0.5886962624320865       1
5.205                     0.225                    0.594969681941701        1
5.315                     0.225                    0.6654270303731699       1
5.425                     0.225                    0.6888012564838859       1
5.535000000000001         0.225                    0.5563495805328234       1
5.645                     0.225                    0.5806143895021403       1
5.755                     0.225                    1.03142168544772         1
5.864999999999999         0.225                    0.9501440293502867       1
5.975                     0.225                    0.8300656287718613       1
6.085                     0.225                    0.8400971177069512       1
6.195                     0.225                    0.8501286066420415       1
6.305                     0.225                    0.8319911258002305       1
6.415                     0.225                    0.8045794132810682       1
6.525                     0.225                    0.6801666877197561       1
6.635000000000001         0.225                    1.003033759103329        1
6.745                     0.225                    0.7447964948389612       1
6.855                     0.225                    0.7266805139728922       1
6.964999999999999         0.225                    0.7399700860263096       1
7.074999999999999         0.225                    0.13464366006411588      1
7.185                     0.225                    0.08501993574035938      1
7.294999999999999         0.225                    0.07252219498536894      1
7.405                     0.225                    0.014233023753950413     1
7.515                     0.225                    -0.009987132169193771    1
7.625                     0.225                    -0.03359966179418126     1
7.734999999999999         0.225                    -0.046973777693154806    1
7.845                     0.225                    -0.056195187770236105    1
7.954999999999999         0.225                    -0.05843646647824621     1
8.065                     0.225                    -0.06272358759448121     1
8.175                     0.225                    -0.06240961897333078     1
8.285                     0.225                    -0.06191963443548418     1
8.395                     0.225                    -0.06187476819397301     1
8.504999999999999         0.225                    -0.05921821696036309     1
8.615                     0.225                    -0.06008552391591633     1
8.725                     0.225                    -0.05911207876400648     1
8.835                     0.225                    -0.05837486399310546     1
8.945                     0.225                    -0.05751508473124189     1
-1.9450000000000005       0.315                    -0.061264134139379325    1
-1.8350000000000004       0.315                    -0.06200715697008907     1
-1.7250000000000003       0.315                    -0.06282737487719514     1
-1.6150000000000002       0.315                    -0.06350904213521408     1
-1.5050000000000003       0.315                    -0.06508114536665434     1
-1.3950000000000005       0.315                    -0.06492359849412921     1
-1.2850000000000006       0.315                    -0.06476605162160429     1
-1.1750000000000007       0.315                    -0.06460850474907921     1
-1.0650000000000004       0.315                    -0.06445095787655407     1
-0.9550000000000005       0.315                    -0.06534713113259852     1
-0.8450000000000005       0.315                    -0.05629655230586095     1
-0.7350000000000003       0.315                    -0.04673002540338911     1
-0.6250000000000004       0.315                    -0.0271783570605404      1
-0.5150000000000003       0.315                    -0.007626688717692842    1
-0.40500000000000047      0.315                    0.033229834999157326     1
-0.2950000000000004       0.315                    0.06517610168407305      1
-0.18500000000000028      0.315                    0.18839494029256623      1
-0.0750000000000004       0.315                    0.284611825440041        1
0.0349999999999997        0.315                    0.3982933641927565       1
0.1449999999999998        0.315                    0.47541090764524807      1
0.25499999999999945       0.315                    0.466949244843645        1
0.36499999999999955       0.315                    0.4559469355075556       1
0.4749999999999994        0.315                    0.4566790264522065       1
0.5849999999999993        0.315                    0.44952357274055466      1
0.6949999999999996        0.315                    0.42636956801142534      1
0.8049999999999997        0.315                    0.43594138047835973      1
0.915                     0.315                    0.4455131929452941       1
1.025                     0.315                    0.4136941428320817       1
1.1349999999999996        0.315                    0.4956457542646202       1
1.2449999999999994        0.315                    0.4798444134012141       1
1.3549999999999998        0.315                    0.46404307253780774      1
1.4649999999999996        0.315                    0.4967722533712077       1
1.575                     0.315                    0.4074172844506516       1
1.6849999999999998        0.315                    0.4612383974020289       1
1.7949999999999993        0.315                    0.45778278257708666      1
1.9049999999999996        0.315                    0.4060672059269551       1
2.0149999999999997        0.315                    0.4787503585721575       1
2.125                     0.315                    0.45737747328030787      1
2.2349999999999994        0.315                    0.45609158400899485      1
2.3449999999999998        0.315                    0.45480569473768195      1
2.455                     0.315                    0.48832088652749894      1
2.5649999999999995        0.315                    0.455459235065931        1
2.675                     0.315                    0.47424236620267385      1
2.785                     0.315                    0.4930254973394168       1
2.8949999999999996        0.315                    0.32500860284952526      1
3.005                     0.315                    0.4197117578530773       1
3.115                     0.315                    0.4696203629120475       1
3.224999999999999         0.315                    0.4531083840934578       1
3.335                     0.315                    0.4591998069571217       1
3.445                     0.315                    0.4414797561356145       1
3.5549999999999997        0.315                    0.45028908398386736      1
3.6649999999999996        0.315                    0.45038724373339595      1
3.7750000000000004        0.315                    0.45048540348292376      1
3.8850000000000002        0.315                    0.5520674825083556       1
3.995                     0.315                    0.5134316318458022       1
4.105                     0.315                    0.5359916057108413       1
4.214999999999999         0.315                    0.5585515795758798       1
4.324999999999999         0.315                    0.3855002069546387       1
4.435                     0.315                    0.5524326572942322       1
4.544999999999999         0.315                    0.5484407922565735       1
4.655                     0.315                    0.5444489272189121       1
4.765                     0.315                    0.6260651908781393       1
4.875                     0.315                    0.6457339320078838       1
4.984999999999999         0.315                    0.5447791503572172       1
5.095                     0.315                    0.5510525698668326       1
5.205                     0.315                    0.5573259893764464       1
5.315                     0.315                    0.6492292055334262       1
5.425                     0.315                    0.5379875138685424       1
5.535000000000001         0.315                    0.5401894631521038       1
5.645                     0.315                    0.5475147243232628       1
5.755                     0.315                    0.5548399854944221       1
5.864999999999999         0.315                    0.4314088789979622       1
5.975                     0.315                    0.576547172668965        1
6.085                     0.315                    0.6450475892682981       1
6.195                     0.315                    0.7135480058676285       1
6.305                     0.315                    0.5579870737847175       1
6.415                     0.315                    0.6100754053762794       1
6.525                     0.315                    0.618467999255452        1
6.635000000000001         0.315                    0.5974077733935128       1
6.745                     0.315                    0.5754118350594366       1