% Model:              sc_magnet.mph
% Version:            COMSOL 6.2.0.415
% Date:               Feb 3 2025, 12:43
% Dimension:          2
% Nodes:              3000
% Expressions:        2
% Description:        Point
% cpl3x                   cpl3y                    Magnetic flux density, z-component Radius
-1.9450000000000005       0.045000000000000005     0.0036162026900051353    1
-1.8350000000000004       0.045000000000000005     0.003930137633416431     1
-1.7250000000000003       0.045000000000000005     0.0019554686910737418    1
-1.6150000000000002       0.045000000000000005     -1.9200251269613222E-5   1
-1.5050000000000003       0.045000000000000005     -0.001993869193611844    1
-1.3950000000000005       0.045000000000000005     -0.003968538135954625    1
-1.2850000000000006       0.045000000000000005     0.005232694874813223     1
-1.1750000000000007       0.045000000000000005     0.0014659016997141863    1
-1.0650000000000004       0.045000000000000005     -0.0023008914753854613   1
-0.9550000000000005       0.045000000000000005     -0.006067684650484776    1
-0.8450000000000005       0.045000000000000005     0.0249278208789514       1
-0.7350000000000003       0.045000000000000005     0.007897934866075929     1
-0.6250000000000004       0.045000000000000005     -0.00913195114680132     1
-0.5150000000000003       0.045000000000000005     0.028868920140173893     1
-0.40500000000000047      0.045000000000000005     -0.030002613076094198    1
-0.2950000000000004       0.045000000000000005     -0.05053078915941234     1
-0.18500000000000028      0.045000000000000005     0.0037305446986657387    1
-0.0750000000000004       0.045000000000000005     0.019851871258730114     1
0.0349999999999997        0.045000000000000005     0.034074334842344456     1
0.1449999999999998        0.045000000000000005     0.029949772887910342     1
0.25499999999999945       0.045000000000000005     -0.049647393039651044    1
0.36499999999999955       0.045000000000000005     -0.07467452804796482     1
0.4749999999999994        0.045000000000000005     -0.01026068459349716     1
0.5849999999999993        0.045000000000000005     0.010493319846807125     1
0.6949999999999996        0.045000000000000005     0.007417386177547947     1
0.8049999999999997        0.045000000000000005     0.03247519943531341      1
0.915                     0.045000000000000005     0.008545661344923183     1
1.025                     0.045000000000000005     0.026798607843821376     1
1.1349999999999996        0.045000000000000005     -0.022422160355173804    1
1.2449999999999994        0.045000000000000005     0.006139460202414071     1
1.3549999999999998        0.045000000000000005     0.01908483691982865      1
1.4649999999999996        0.045000000000000005     -0.03135596965413212     1
1.575                     0.045000000000000005     -0.004428618995985012    1
1.6849999999999998        0.045000000000000005     0.01330068211906621      1
1.7949999999999993        0.045000000000000005     -0.009287533115194868    1
1.9049999999999996        0.045000000000000005     -0.0019203826541525082   1
2.0149999999999997        0.045000000000000005     0.04582785448218485      1
2.125                     0.045000000000000005     -0.0034535080550188724   1
2.2349999999999994        0.045000000000000005     -0.002183853315002704    1
2.3449999999999998        0.045000000000000005     -0.01205231453846789     1
2.455                     0.045000000000000005     0.010894917255606651     1
2.5649999999999995        0.045000000000000005     0.021059707201575906     1
2.675                     0.045000000000000005     -0.008575635114845825    1
2.785                     0.045000000000000005     0.012246892294913714     1
2.8949999999999996        0.045000000000000005     0.026855542557418843     1
3.005                     0.045000000000000005     -0.014426506968008512    1
3.115                     0.045000000000000005     0.005635636321198234     1
3.224999999999999         0.045000000000000005     -0.01736629855266747     1
3.335                     0.045000000000000005     -0.004791809473652431    1
3.445                     0.045000000000000005     0.009259684655787304     1
3.5549999999999997        0.045000000000000005     -0.011295047269852587    1
3.6649999999999996        0.045000000000000005     -7.587150184367175E-4    1
3.7750000000000004        0.045000000000000005     0.017704709601000346     1
3.8850000000000002        0.045000000000000005     0.005912674756925362     1
3.995                     0.045000000000000005     0.02013024252738127      1
4.105                     0.045000000000000005     -0.012167777384483713    1
4.214999999999999         0.045000000000000005     0.005489036995435015     1
4.324999999999999         0.045000000000000005     0.023145851375347526     1
4.435                     0.045000000000000005     -0.02250203464935474     1
4.544999999999999         0.045000000000000005     -0.011938345715981402    1
4.655                     0.045000000000000005     -0.006103746887088896    1
4.765                     0.045000000000000005     0.004409568491532845     1
4.875                     0.045000000000000005     0.01490960714102374      1
4.984999999999999         0.045000000000000005     -0.03675326345032914     1
5.095                     0.045000000000000005     -0.0044686786923211486   1
5.205                     0.045000000000000005     0.001666230057502105     1
5.315                     0.045000000000000005     -0.013187128871041454    1
5.425                     0.045000000000000005     0.001388592567962199     1
5.535000000000001         0.045000000000000005     -0.004045060489701768    1
5.645                     0.045000000000000005     -0.01817896966590382     1
5.755                     0.045000000000000005     -0.00709056164448274     1
5.864999999999999         0.045000000000000005     -8.060735680155418E-4    1
5.975                     0.045000000000000005     0.004602394236336238     1
6.085                     0.045000000000000005     0.018623857439468594     1
6.195                     0.045000000000000005     -0.011011777832187208    1
6.305                     0.045000000000000005     0.018459285409283765     1
6.415                     0.045000000000000005     0.025714584060208878     1
6.525                     0.045000000000000005     -0.006138277120639302    1
6.635000000000001         0.045000000000000005     0.06784478269044736      1
6.745                     0.045000000000000005     -0.04025641029036997     1
6.855                     0.045000000000000005     0.03556192373833156      1
6.964999999999999         0.045000000000000005     -0.01612446015734093     1
7.074999999999999         0.045000000000000005     -0.00795393794771826     1
7.185                     0.045000000000000005     -0.0121862571311242      1
7.294999999999999         0.045000000000000005     -0.0818754029698141      1
7.405                     0.045000000000000005     0.047565931929426375     1
7.515                     0.045000000000000005     -0.003869065604435784    1
7.625                     0.045000000000000005     0.03287621322754575      1
7.734999999999999         0.045000000000000005     0.012226053526904757     1
7.845                     0.045000000000000005     -0.008424106173735346    1
7.954999999999999         0.045000000000000005     -0.0015595495287108463   1
8.065                     0.045000000000000005     0.010870226747423922     1
8.175                     0.045000000000000005     0.005226887055082494     1
8.285                     0.045000000000000005     -4.164526372584382E-4    1
8.395                     0.045000000000000005     -0.0024578166498987475   1
8.504999999999999         0.045000000000000005     0.002687364420771665     1
8.615                     0.045000000000000005     9.304648776015112E-4     1
8.725                     0.045000000000000005     -8.264346655681987E-4    1
8.835                     0.045000000000000005     -0.0025833342087384636   1
8.945                     0.045000000000000005     -0.00434023375190884     1
-1.9450000000000005       0.135                    0.0036437903264668753    1
-1.8350000000000004       0.135                    0.0020648709289189937    1
-1.7250000000000003       0.135                    0.00196199163787375      1
-1.6150000000000002       0.135                    -1.2677304469133066E-5   1
-1.5050000000000003       0.135                    -0.001987346246812155    1
-1.3950000000000005       0.135                    -0.003962015189154783    1
-1.2850000000000006       0.135                    0.004721234129590919     1
-1.1750000000000007       0.135                    9.544409544924373E-4     1
-1.0650000000000004       0.135                    -0.002812352220605878    1
-0.9550000000000005       0.135                    -0.010651252230875374    1
-0.8450000000000005       0.135                    -0.020163503919054956    1
-0.7350000000000003       0.135                    0.010464880006570976     1
-0.6250000000000004       0.135                    -0.006565006006306273    1
-0.5150000000000003       0.135                    -0.01633312935885295     1
-0.40500000000000047      0.135                    -0.018481293733927484    1
-0.2950000000000004       0.135                    -0.06261824231199586     1
-0.18500000000000028      0.135                    -0.002899567348883636    1
-0.0750000000000004       0.135                    2.4186662402669867E-4    1
0.0349999999999997        0.135                    -0.04948724568354912     1
0.1449999999999998        0.135                    0.016424827174027712     1
0.25499999999999945       0.135                    -0.0057574358799641345   1
0.36499999999999955       0.135                    0.06529630362115313      1
0.4749999999999994        0.135                    -0.03068392063422587     1
0.5849999999999993        0.135                    0.0074958142900865       1
0.6949999999999996        0.135                    0.012166717685325068     1
0.8049999999999997        0.135                    -0.05271302863282412     1
0.915                     0.135                    -0.03163147422612944     1
1.025                     0.135                    0.0394562566069101       1
1.1349999999999996        0.135                    -0.018048397238381586    1
1.2449999999999994        0.135                    -0.0028828951936965552   1
1.3549999999999998        0.135                    0.018928584159287        1
1.4649999999999996        0.135                    -0.02442406984642531     1
1.575                     0.135                    -0.0011720454963015658   1
1.6849999999999998        0.135                    0.016557255618749878     1
1.7949999999999993        0.135                    0.01985891516252991      1
1.9049999999999996        0.135                    -0.020752063557785916    1
2.0149999999999997        0.135                    0.022762156448986826     1
2.125                     0.135                    -0.0027616749816630204   1
2.2349999999999994        0.135                    -0.01751976630580568     1
2.3449999999999998        0.135                    -0.006369281620385969    1
2.455                     0.135                    0.005235230432116822     1
2.5649999999999995        0.135                    0.024650476663246046     1
2.675                     0.135                    -0.0038792988440808918   1
2.785                     0.135                    -0.023203135317763746    1
2.8949999999999996        0.135                    0.017176058069864553     1
3.005                     0.135                    -0.025721154278906866    1
3.115                     0.135                    0.022437702498412038     1
3.224999999999999         0.135                    -0.007904548989539961    1
3.335                     0.135                    -8.62100839995883E-5     1
3.445                     0.135                    0.0011406900927761754    1
3.5549999999999997        0.135                    0.008741871809109014     1
3.6649999999999996        0.135                    -0.0027976299332195254   1
3.7750000000000004        0.135                    0.01299997100341077      1
3.8850000000000002        0.135                    0.015731465134461775     1
3.995                     0.135                    0.029949032904917017     1
4.105                     0.135                    -0.007924590470721152    1
4.214999999999999         0.135                    -0.024476367113202002    1
4.324999999999999         0.135                    0.01466755495377603      1
4.435                     0.135                    0.012702174590119242     1
4.544999999999999         0.135                    -0.02120282866185752     1
4.655                     0.135                    -0.007827566993852259    1
4.765                     0.135                    0.005596331482993877     1
4.875                     0.135                    0.01657162563605996      1
4.984999999999999         0.135                    -0.00990636866279715     1
5.095                     0.135                    -0.004256014193956048    1
5.205                     0.135                    0.018669511559965102     1
5.315                     0.135                    0.022723905486337515     1
5.425                     0.135                    0.006054003863275977     1
5.535000000000001         0.135                    0.008407327585764346     1
5.645                     0.135                    -0.022243053983433292    1
5.755                     0.135                    -0.010759415878152545    1
5.864999999999999         0.135                    -0.002438309097555491    1
5.975                     0.135                    0.0023371385414310275    1
6.085                     0.135                    0.0126478260695424       1
6.195                     0.135                    0.04503096279736862      1
6.305                     0.135                    0.010881811413177012     1
6.415                     0.135                    0.013096627380409842     1
6.525                     0.135                    0.02143057118773206      1
6.635000000000001         0.135                    -0.04210948526766334     1
6.745                     0.135                    0.03782913633966345      1
6.855                     0.135                    0.02464712413036807      1
6.964999999999999         0.135                    -0.004444813781969259    1
7.074999999999999         0.135                    2.0364592063160103E-4    1
7.185                     0.135                    -0.07717143079495647     1
7.294999999999999         0.135                    0.073755315106105        1
7.405                     0.135                    0.03914700617995326      1
7.515                     0.135                    0.0023574249256999025    1
7.625                     0.135                    -0.016644285505091005    1
7.734999999999999         0.135                    0.00881494654708656      1
7.845                     0.135                    0.008860765194599551     1
7.954999999999999         0.135                    -0.0023328500493842164   1
8.065                     0.135                    0.009854186556688562     1
8.175                     0.135                    0.004210846864347355     1
8.285                     0.135                    -0.0014324928279937782   1
8.395                     0.135                    -0.00247580576456774     1
8.504999999999999         0.135                    0.0026767314632387684    1
8.615                     0.135                    9.198319200691696E-4     1
8.725                     0.135                    -8.370676231009844E-4    1
8.835                     0.135                    -0.0025939671662710273   1
8.945                     0.135                    6.193071856427889E-4     1
-1.9450000000000005       0.225                    0.003671377962928643     1
-1.8350000000000004       0.225                    0.002092458565380803     1
-1.7250000000000003       0.225                    5.135391678329909E-4     1
-1.6150000000000002       0.225                    -6.154357669124755E-6    1
-1.5050000000000003       0.225                    -0.001980823300012244    1
-1.3950000000000005       0.225                    0.0079765665594696       1
-1.2850000000000006       0.225                    0.004209773384369828     1
-1.1750000000000007       0.225                    4.4298020927090176E-4    1
-1.0650000000000004       0.225                    -0.0011345318815811911   1
-0.9550000000000005       0.225                    -0.010646783569759899    1
-0.8450000000000005       0.225                    -0.020159035257939273    1
-0.7350000000000003       0.225                    0.013031825147065135     1
-0.6250000000000004       0.225                    -0.0015785911503369832   1
-0.5150000000000003       0.225                    -0.019056718514741444    1
-0.40500000000000047      0.225                    -0.008102905580652964    1
-0.2950000000000004       0.225                    -0.039114377520231614    1
-0.18500000000000028      0.225                    -0.02051257139098439     1
-0.0750000000000004       0.225                    0.023140423265346044     1
0.0349999999999997        0.225                    0.02921115403672303      1
0.1449999999999998        0.225                    -0.051738418906523975    1
0.25499999999999945       0.225                    0.008822069827566281     1
0.36499999999999955       0.225                    -0.06701203729052718     1
0.4749999999999994        0.225                    0.005282486176064083     1
0.5849999999999993        0.225                    0.004498308733381862     1
0.6949999999999996        0.225                    0.03631665539722917      1
0.8049999999999997        0.225                    -0.03296616796995089     1
0.915                     0.225                    -0.01188461356326087     1
1.025                     0.225                    0.009196940843438028     1
1.1349999999999996        0.225                    -0.013674634121589868    1
1.2449999999999994        0.225                    0.0014908679230956068    1
1.3549999999999998        0.225                    -0.010821087456818645    1
1.4649999999999996        0.225                    -0.0174921700387074      1
1.575                     0.225                    -0.024163252620576614    1
1.6849999999999998        0.225                    0.01940410038570839      1
1.7949999999999993        0.225                    0.011211456859030022     1
1.9049999999999996        0.225                    0.0030188133323179045    1
2.0149999999999997        0.225                    -3.0354158421452837E-4   1
2.125                     0.225                    0.05336319710242243      1
2.2349999999999994        0.225                    -0.011652498107339267    1
2.3449999999999998        0.225                    -6.862487023031605E-4    1
2.455                     0.225                    0.010918263350200519     1
2.5649999999999995        0.225                    -0.011490355015866704    1
2.675                     0.225                    0.028808751433966995     1
2.785                     0.225                    0.002317260880003502     1
2.8949999999999996        0.225                    0.007496573582314703     1
3.005                     0.225                    -0.006436392175508843    1
3.115                     0.225                    -0.0016198343414508543   1
3.224999999999999         0.225                    -4.983913602170098E-4    1
3.335                     0.225                    -0.00242905733738219     1
3.445                     0.225                    -0.00662137940254226     1
3.5549999999999997        0.225                    -1.430078673791968E-4    1
3.6649999999999996        0.225                    -0.009752390877011408    1
3.7750000000000004        0.225                    0.008295232405824748     1
3.8850000000000002        0.225                    0.0106087299001274       1
3.995                     0.225                    -0.020135253053056634    1
4.105                     0.225                    -0.004028337786579905    1
4.214999999999999         0.225                    -0.05444177122183036     1
4.324999999999999         0.225                    0.0016282234467341894    1
4.435                     0.225                    0.011019197310583095     1
4.544999999999999         0.225                    -0.0012599149947494226   1
4.655                     0.225                    -0.009551387100613262    1
4.765                     0.225                    0.004570844018126352     1
4.875                     0.225                    -0.027912036693217512    1
4.984999999999999         0.225                    0.016569063661167505     1
5.095                     0.225                    -0.030258670853150704    1
5.205                     0.225                    -0.0052141705146162565   1
5.315                     0.225                    0.01137715932218697      1
5.425                     0.225                    0.014598390350483825     1
5.535000000000001         0.225                    0.0208597156612349       1
5.645                     0.225                    -0.004260824864881663    1
5.755                     0.225                    0.011458816004299877     1
5.864999999999999         0.225                    -0.004070544627096551    1
5.975                     0.225                    0.012282260283647872     1
6.085                     0.225                    -0.021657965772220678    1
6.195                     0.225                    0.027255139750231194     1
6.305                     0.225                    -0.0017361452666122545   1
6.415                     0.225                    4.786707006267932E-4     1
6.525                     0.225                    0.015979826107638928     1
6.635000000000001         0.225                    -0.019973265777196048    1
6.745                     0.225                    -0.05827635825655264     1
6.855                     0.225                    0.024281855742430025     1
6.964999999999999         0.225                    -0.029974289567773482    1
7.074999999999999         0.225                    -0.015222230679245996    1
7.185                     0.225                    -0.0692736396511151      1
7.294999999999999         0.225                    0.05527682039172355      1
7.405                     0.225                    -0.015871632157136162    1
7.515                     0.225                    1.1195661016039082E-4    1
7.625                     0.225                    -0.01888975382062341     1
7.734999999999999         0.225                    0.019281079917909852     1
7.845                     0.225                    0.008087464673929734     1
7.954999999999999         0.225                    -0.003106150570055588    1
8.065                     0.225                    0.008838146365953103     1
8.175                     0.225                    0.00319480667361223      1
8.285                     0.225                    4.915907989125889E-4     1
8.395                     0.225                    -0.0024937948792368436   1
8.504999999999999         0.225                    0.002666098505706538     1
8.615                     0.225                    9.091989625362729E-4     1
8.725                     0.225                    -8.47700580633659E-4     1
8.835                     0.225                    0.0018579215569283496    1
8.945                     0.225                    6.193071856427856E-4     1
-1.9450000000000005       0.315                    0.0036989655993904837    1
-1.8350000000000004       0.315                    0.0021200462018425084    1
-1.7250000000000003       0.315                    5.411268042947448E-4     1
-1.6150000000000002       0.315                    -0.0010377925932530813   1
-1.5050000000000003       0.315                    -0.001974300353212388    1
-1.3950000000000005       0.315                    0.007465105814248273     1
-1.2850000000000006       0.315                    0.003698312639148625     1
-1.1750000000000007       0.315                    0.008382188467714435     1
-1.0650000000000004       0.315                    -0.0011300632204660488   1
-0.9550000000000005       0.315                    -0.010642314908643424    1
-0.8450000000000005       0.315                    -0.020154566596821688    1
-0.7350000000000003       0.315                    0.015598770287557961     1
-0.6250000000000004       0.315                    0.03782156617256205      1
-0.5150000000000003       0.315                    0.01692831812501666      1
-0.40500000000000047      0.315                    0.001975014313739365     1
-0.2950000000000004       0.315                    -0.046947271481496244    1
-0.18500000000000028      0.315                    0.04762154429375797      1
-0.0750000000000004       0.315                    -0.018061937150429246    1
0.0349999999999997        0.315                    0.00949155845463423      1
0.1449999999999998        0.315                    -0.030084601128429256    1
0.25499999999999945       0.315                    0.045073426734816735     1
0.36499999999999955       0.315                    -0.0434414886046679      1
0.4749999999999994        0.315                    0.039247136840554475     1
0.5849999999999993        0.315                    -0.027562663197349124    1
0.6949999999999996        0.315                    0.0034494757775860307    1
0.8049999999999997        0.315                    -0.030442424515650046    1
0.915                     0.315                    -0.017689415565392608    1
1.025                     0.315                    0.06385221791875706      1
1.1349999999999996        0.315                    0.0037369771188195955    1
1.2449999999999994        0.315                    0.024931102542041117     1
1.3549999999999998        0.315                    -0.010812499009848153    1
1.4649999999999996        0.315                    -0.032532292201469915    1
1.575                     0.315                    -0.03189714196977178     1
1.6849999999999998        0.315                    0.0055952846866809125    1
1.7949999999999993        0.315                    0.031964629487519325     1
1.9049999999999996        0.315                    0.005152683253028867     1
2.0149999999999997        0.315                    -0.024500839305389377    1
2.125                     0.315                    0.00872806682954419      1
2.2349999999999994        0.315                    0.0160341761621261       1
2.3449999999999998        0.315                    0.019860985952337984     1
2.455                     0.315                    -0.016713108326815274    1
2.5649999999999995        0.315                    0.017350615496557253     1
2.675                     0.315                    -0.012222583138203902    1
2.785                     0.315                    0.010431555331400943     1
2.8949999999999996        0.315                    0.030258951645052434     1
3.005                     0.315                    0.010638407631820002     1
3.115                     0.315                    -0.0016091307278784939   1
3.224999999999999         0.315                    -0.02461471220605027     1
3.335                     0.315                    -0.011043613121614726    1
3.445                     0.315                    -0.01777726085109066     1
3.5549999999999997        0.315                    0.021071336719812317     1
3.6649999999999996        0.315                    -0.010958130099716357    1
3.7750000000000004        0.315                    0.02242229547235297      1
3.8850000000000002        0.315                    0.028600332594933775     1
3.995                     0.315                    0.004490450315612071     1
4.105                     0.315                    0.05041279118510511      1
4.214999999999999         0.315                    -0.056644221577322185    1
4.324999999999999         0.315                    0.010565146015290239     1
4.435                     0.315                    3.929820553492114E-4     1
4.544999999999999         0.315                    0.004079444194938553     1
4.655                     0.315                    0.0272037344572027       1
4.765                     0.315                    0.014657360730865321     1
4.875                     0.315                    0.012089289824146476     1
4.984999999999999         0.315                    -0.013281783573543038    1
5.095                     0.315                    0.007466364124658398     1
5.205                     0.315                    0.023748463405558695     1
5.315                     0.315                    -0.028606094801737925    1
5.425                     0.315                    -0.008019449272783419    1
5.535000000000001         0.315                    0.01206379920303391      1
5.645                     0.315                    -0.0038858593278838782   1
5.755                     0.315                    0.015130912353964021     1
5.864999999999999         0.315                    -0.030314414456780625    1
5.975                     0.315                    0.006986376713211229     1
6.085                     0.315                    -0.02841508449920127     1
6.195                     0.315                    0.04018751990795266      1
6.305                     0.315                    5.398963954590386E-4     1
6.415                     0.315                    0.03383481775068731      1
6.525                     0.315                    0.029152886100984432     1
6.635000000000001         0.315                    0.02463625158898708      1
6.745                     0.315                    -0.03437149255101701     1